6
	Energy:       3.7978787
C         -4.20315        1.53804        0.00581
O         -3.03779        0.76561       -0.01451
H         -4.03057        2.51046       -0.50436
H         -4.54392        1.69503        1.05218
H         -5.00232        0.99688       -0.54126
H         -2.35600        1.28702        0.48350
