                  Welcome to Q-Chem
     A Quantum Leap Into The Future Of Chemistry


 Q-Chem 5.4 (devel), Q-Chem, Inc., Pleasanton, CA (2021)

 Yihan Shao,  Zhengting Gan,  E. Epifanovsky,  A. T. B. Gilbert,  M. Wormit,  
 J. Kussmann,  A. W. Lange,  A. Behn,  Jia Deng,  Xintian Feng,  D. Ghosh,  
 M. Goldey,  P. R. Horn,  L. D. Jacobson,  I. Kaliman,  T. Kus,  A. Landau,  
 Jie Liu,  E. I. Proynov,  R. M. Richard,  R. P. Steele,  E. J. Sundstrom,  
 H. L. Woodcock III,  P. M. Zimmerman,  D. Zuev,  B. Alam,  B. Albrecht,  
 A. Aldossary,  E. Alguire,  S. A. Baeppler,  D. Barton,  Z. Benda,  
 Y. A. Bernard,  E. J. Berquist,  K. B. Bravaya,  H. Burton,  K. Carter-Fenk,  
 D. Casanova,  Chun-Min Chang,  Yunqing Chen,  A. Chien,  K. D. Closser,  
 M. P. Coons,  S. Coriani,  S. Dasgupta,  A. L. Dempwolff,  M. Diedenhofen,  
 Hainam Do,  R. G. Edgar,  Po-Tung Fang,  S. Faraji,  S. Fatehi,  
 Qingguo Feng,  J. Fosso-Tande,  J. Gayvert,  Qinghui Ge,  A. Ghysels,  
 G. Gidofalvi,  J. Gomes,  J. Gonthier,  S. Gulania,  A. Gunina,  D. Hait,  
 M. W. D. Hanson-Heine,  S. Hammes-Schiffer,  P. H. P. Harbach,  
 A. W. Hauser,  M. F. Herbst,  J. E. Herr,  E. G. Hohenstein,  Z. C. Holden,  
 S. Houck,  Kerwin Hui,  B. C. Huynh,  M. Ivanov,  T.-C. Jagau,  Hyunjun Ji,  
 B. Kaduk,  K. Khistyaev,  Jaehoon Kim,  P. Klunzinger,  K. Koh,  
 D. Kosenkov,  L. Koulias,  T. Kowalczyk,  C. M. Krauter,  A. Kunitsa,  
 Ka Un Lao,  A. Laurent,  K. V. Lawler,  Joonho Lee,  D. Lefrancois,  
 S. Lehtola,  D. S. Levine,  Yi-Pei Li,  You-Sheng Lin,  Fenglai Liu,  
 Kuan-Yu Liu,  E. Livshits,  M. Loipersberger,  A. Luenser,  A. Manjanath,  
 P. Manohar,  E. Mansoor,  S. F. Manzer,  Shan-Ping Mao,  Yuezhi Mao,  
 N. Mardirossian,  A. V. Marenich,  T. Markovich,  L. A. Martinez-Martinez,  
 S. A. Maurer,  N. J. Mayhall,  S. C. McKenzie,  J.-M. Mewes,  P. Morgante,  
 A. F. Morrison,  J. W. Mullinax,  K. Nanda,  T. S. Nguyen-Beck,  
 R. Olivares-Amaya,  K. J. Oosterbaan,  J. A. Parkhill,  S. K. Paul,  
 F. Pavosevic,  Zheng Pei,  T. M. Perrine,  F. Plasser,  P. Pokhilko,  
 S. Prager,  A. Prociuk,  E. Ramos,  B. Rana,  D. R. Rehn,  F. Rob,  
 E. Rossomme,  M. Scheurer,  M. Schneider,  N. Sergueev,  S. M. Sharada,  
 S. Sharma,  W. Skomorowski,  D. W. Small,  T. Stauch,  C. J. Stein,  
 T. Stein,  Yu-Chuan Su,  S. P. Veccham,  Zhen Tao,  A. J. W. Thom,  
 A. Tkatchenko,  T. Tsuchimochi,  N. M. Tubman,  L. Vogt,  M. L. Vidal,  
 O. Vydrov,  M. A. Watson,  J. Wenzel,  M. de Wergifosse,  T. A. Wesolowski,  
 A. White,  J. Witte,  A. Yamada,  Jun Yang,  K. Yao,  S. Yeganeh,  
 S. R. Yost,  Zhi-Qiang You,  A. Zech,  Igor Ying Zhang,  Xing Zhang,  
 Yan Zhao,  Ying Zhu,  B. R. Brooks,  G. K. L. Chan,  C. J. Cramer,  
 M. S. Gordon,  W. J. Hehre,  A. Klamt,  M. W. Schmidt,  C. D. Sherrill,  
 D. G. Truhlar,  A. Aspuru-Guzik,  R. Baer,  A. T. Bell,  N. A. Besley,  
 Jeng-Da Chai,  A. E. DePrince, III,  R. A. DiStasio Jr.,  A. Dreuw,  
 B. D. Dunietz,  T. R. Furlani,  Chao-Ping Hsu,  Yousung Jung,  Jing Kong,  
 D. S. Lambrecht,  WanZhen Liang,  C. Ochsenfeld,  V. A. Rassolov,  
 L. V. Slipchenko,  J. E. Subotnik,  T. Van Voorhis,  J. M. Herbert,  
 A. I. Krylov,  P. M. W. Gill,  M. Head-Gordon

 Contributors to earlier versions of Q-Chem not listed above: 
 R. D. Adamson,  B. Austin,  J. Baker,  G. J. O. Beran,  K. Brandhorst,  
 S. T. Brown,  E. F. C. Byrd,  A. K. Chakraborty,  C.-L. Cheng,  
 Siu Hung Chien,  D. M. Chipman,  D. L. Crittenden,  H. Dachsel,  
 R. J. Doerksen,  A. D. Dutoi,  L. Fusti-Molnar,  W. A. Goddard III,  
 A. Golubeva-Zadorozhnaya,  S. R. Gwaltney,  G. Hawkins,  A. Heyden,  
 S. Hirata,  G. Kedziora,  F. J. Keil,  C. Kelley,  Jihan Kim,  R. A. King,  
 R. Z. Khaliullin,  P. P. Korambath,  W. Kurlancheek,  A. M. Lee,  M. S. Lee,  
 S. V. Levchenko,  Ching Yeh Lin,  D. Liotard,  R. C. Lochan,  I. Lotan,  
 P. E. Maslen,  N. Nair,  D. P. O'Neill,  D. Neuhauser,  E. Neuscamman,  
 C. M. Oana,  R. Olson,  B. Peters,  R. Peverati,  P. A. Pieniazek,  
 Y. M. Rhee,  J. Ritchie,  M. A. Rohrdanz,  E. Rosta,  N. J. Russ,  
 H. F. Schaefer III,  N. E. Schultz,  N. Shenvi,  A. C. Simmonett,  A. Sodt,  
 D. Stuck,  K. S. Thanthiriwatte,  V. Vanovschi,  Tao Wang,  A. Warshel,  
 C. F. Williams,  Q. Wu,  X. Xu,  W. Zhang

 Please cite Q-Chem as follows:
 Y. Shao et al., Mol. Phys. 113, 184-215 (2015)
 DOI: 10.1080/00268976.2014.952696

 Q-Chem 5.4.0 for Intel X86 EM64T Linux

 Parts of Q-Chem use Armadillo 9.800.1 (Horizon Scraper).
 http://arma.sourceforge.net/

 Q-Chem begins on Thu Aug 26 21:17:51 2021  

Host: node205.cluster
0

     Scratch files written to /srv/beegfs/scratch/users/r/ricardi/qchem134006//
Processing $rem in /home/share/wesolowski/qc5.trunk/config/preferences:
Processing $rem in /home/ricardi/.qchemrc:

Checking the input file for inconsistencies... 	...done.

--------------------------------------------------------------
User input:
--------------------------------------------------------------
$comment
Generated from CCJob.qchem_templates
$end

$rem
sym_ignore = true
method = hf
basis = gen
fde = false
scf_convergence = 7
gen_scfman = false
mem_static = 1024
mem_total = 14000
molden_format = false
print_orbitals = 50
fde_details = 4
scf_print = 0
scf_final_print = 1
fde_export_density = true

thresh = 14
basis_lin_dep_thresh = 5
$end

$molecule
0 1
C         -4.20315        1.53804        0.00581
O         -3.03779        0.76561       -0.01451
H         -4.03057        2.51046       -0.50436
H         -4.54392        1.69503        1.05218
H         -5.00232        0.99688       -0.54126
H         -2.35600        1.28702        0.48350

$end

$basis
H     0
S   4   1.00
      1.301000D+01           1.968500D-02
      1.962000D+00           1.379770D-01
      4.446000D-01           4.781480D-01
      1.220000D-01           5.012400D-01
S   1   1.00
      1.220000D-01           1.000000D+00
S   1   1.00
      0.0297400              1.0000000
P   1   1.00
      7.270000D-01           1.0000000
P   1   1.00
      0.1410000              1.0000000
****
C     0
S   9   1.00
      6.665000D+03           6.920000D-04
      1.000000D+03           5.329000D-03
      2.280000D+02           2.707700D-02
      6.471000D+01           1.017180D-01
      2.106000D+01           2.747400D-01
      7.495000D+00           4.485640D-01
      2.797000D+00           2.850740D-01
      5.215000D-01           1.520400D-02
      1.596000D-01          -3.191000D-03
S   9   1.00
      6.665000D+03          -1.460000D-04
      1.000000D+03          -1.154000D-03
      2.280000D+02          -5.725000D-03
      6.471000D+01          -2.331200D-02
      2.106000D+01          -6.395500D-02
      7.495000D+00          -1.499810D-01
      2.797000D+00          -1.272620D-01
      5.215000D-01           5.445290D-01
      1.596000D-01           5.804960D-01
S   1   1.00
      1.596000D-01           1.000000D+00
S   1   1.00
      0.0469000              1.0000000
P   4   1.00
      9.439000D+00           3.810900D-02
      2.002000D+00           2.094800D-01
      5.456000D-01           5.085570D-01
      1.517000D-01           4.688420D-01
P   1   1.00
      1.517000D-01           1.000000D+00
P   1   1.00
      0.0404100              1.0000000
D   1   1.00
      5.500000D-01           1.0000000
D   1   1.00
      0.1510000              1.0000000
****
N     0
S   9   1.00
      9.046000D+03           7.000000D-04
      1.357000D+03           5.389000D-03
      3.093000D+02           2.740600D-02
      8.773000D+01           1.032070D-01
      2.856000D+01           2.787230D-01
      1.021000D+01           4.485400D-01
      3.838000D+00           2.782380D-01
      7.466000D-01           1.544000D-02
      2.248000D-01          -2.864000D-03
S   9   1.00
      9.046000D+03          -1.530000D-04
      1.357000D+03          -1.208000D-03
      3.093000D+02          -5.992000D-03
      8.773000D+01          -2.454400D-02
      2.856000D+01          -6.745900D-02
      1.021000D+01          -1.580780D-01
      3.838000D+00          -1.218310D-01
      7.466000D-01           5.490030D-01
      2.248000D-01           5.788150D-01
S   1   1.00
      2.248000D-01           1.000000D+00
S   1   1.00
      0.0612400              1.0000000
P   4   1.00
      1.355000D+01           3.991900D-02
      2.917000D+00           2.171690D-01
      7.973000D-01           5.103190D-01
      2.185000D-01           4.622140D-01
P   1   1.00
      2.185000D-01           1.000000D+00
P   1   1.00
      0.0561100              1.0000000
D   1   1.00
      8.170000D-01           1.0000000
D   1   1.00
      0.2300000              1.0000000
****
O     0
S   9   1.00
      1.172000D+04           7.100000D-04
      1.759000D+03           5.470000D-03
      4.008000D+02           2.783700D-02
      1.137000D+02           1.048000D-01
      3.703000D+01           2.830620D-01
      1.327000D+01           4.487190D-01
      5.025000D+00           2.709520D-01
      1.013000D+00           1.545800D-02
      3.023000D-01          -2.585000D-03
S   9   1.00
      1.172000D+04          -1.600000D-04
      1.759000D+03          -1.263000D-03
      4.008000D+02          -6.267000D-03
      1.137000D+02          -2.571600D-02
      3.703000D+01          -7.092400D-02
      1.327000D+01          -1.654110D-01
      5.025000D+00          -1.169550D-01
      1.013000D+00           5.573680D-01
      3.023000D-01           5.727590D-01
S   1   1.00
      3.023000D-01           1.000000D+00
S   1   1.00
      0.0789600              1.0000000
P   4   1.00
      1.770000D+01           4.301800D-02
      3.854000D+00           2.289130D-01
      1.046000D+00           5.087280D-01
      2.753000D-01           4.605310D-01
P   1   1.00
      2.753000D-01           1.000000D+00
P   1   1.00
      0.0685600              1.0000000
D   1   1.00
      1.185000D+00           1.0000000
D   1   1.00
      0.3320000              1.0000000
****
$end
--------------------------------------------------------------
 ----------------------------------------------------------------
             Standard Nuclear Orientation (Angstroms)
    I     Atom           X                Y                Z
 ----------------------------------------------------------------
    1      C      -4.2031500000     1.5380400000     0.0058100000
    2      O      -3.0377900000     0.7656100000    -0.0145100000
    3      H      -4.0305700000     2.5104600000    -0.5043600000
    4      H      -4.5439200000     1.6950300000     1.0521800000
    5      H      -5.0023200000     0.9968800000    -0.5412600000
    6      H      -2.3560000000     1.2870200000     0.4835000000
 ----------------------------------------------------------------
 Nuclear Repulsion Energy =          40.34541254 hartrees
 There are        9 alpha and        9 beta electrons
 Requested basis set is non-standard
 There are 38 shells and 82 basis functions

 Total QAlloc Memory Limit  14000 MB
 Mega-Array Size      1001 MB
 MEM_STATIC part      1024 MB

                       Distance Matrix (Angstroms)
             C (  1)   O (  2)   H (  3)   H (  4)   H (  5)
   O (  2)  1.398258
   H (  3)  1.111602  2.066414
   H (  4)  1.111603  2.066416  1.830648
   H (  5)  1.109420  2.047029  1.799051  1.799054
   H (  6)  1.924360  0.992331  2.297141  2.297142  2.852599

 A cutoff of  1.0D-14 yielded    741 shell pairs
 There are      3485 function pairs (      3843 Cartesian)
 Smallest overlap matrix eigenvalue = 6.81E-04

 Scale SEOQF with 1.000000e-01/1.000000e-01/1.000000e-01

 Standard Electronic Orientation quadrupole field applied
 Nucleus-field energy     =     0.0000000108 hartrees
 ================ Generating on-the-fly SAD Guess ================
Attempting to make child job directory: /srv/beegfs/scratch/users/r/ricardi/qchem134006//Frg1/
Attempting to make child job directory: /srv/beegfs/scratch/users/r/ricardi/qchem134006//Frg2/
Attempting to make child job directory: /srv/beegfs/scratch/users/r/ricardi/qchem134006//Frg3/
Creating input file /srv/beegfs/scratch/users/r/ricardi/qchem134006/Frg1.input
using default PutDataFrgm: nothing
calling putenv with: QCSCRATCH=/srv/beegfs/scratch/users/r/ricardi/qchem134006/ 
calling putenv with: QCLOCALSCR=/srv/beegfs/scratch/users/r/ricardi/qchem134006/ 
Spawning Job For Fragment 0
Done Job For Fragment 0
calling putenv with: QCSCRATCH=/scratch/ricardi 
calling putenv with: QCLOCALSCR=/srv/beegfs/scratch/users/r/ricardi 
calling putenv with: QCTHREADS=1 
Creating input file /srv/beegfs/scratch/users/r/ricardi/qchem134006/Frg2.input
using default PutDataFrgm: nothing
calling putenv with: QCSCRATCH=/srv/beegfs/scratch/users/r/ricardi/qchem134006/ 
calling putenv with: QCLOCALSCR=/srv/beegfs/scratch/users/r/ricardi/qchem134006/ 
Spawning Job For Fragment 1
Done Job For Fragment 1
calling putenv with: QCSCRATCH=/scratch/ricardi 
calling putenv with: QCLOCALSCR=/srv/beegfs/scratch/users/r/ricardi 
calling putenv with: QCTHREADS=1 
Creating input file /srv/beegfs/scratch/users/r/ricardi/qchem134006/Frg3.input
using default PutDataFrgm: nothing
calling putenv with: QCSCRATCH=/srv/beegfs/scratch/users/r/ricardi/qchem134006/ 
calling putenv with: QCLOCALSCR=/srv/beegfs/scratch/users/r/ricardi/qchem134006/ 
Spawning Job For Fragment 2
Done Job For Fragment 2
calling putenv with: QCSCRATCH=/scratch/ricardi 
calling putenv with: QCLOCALSCR=/srv/beegfs/scratch/users/r/ricardi 
calling putenv with: QCTHREADS=1 
 Time for running child jobs:  CPU 0.02 s  wall 3.09 s
 ============= Method Specific SAD Guess Constructed =============
 A restricted Hartree-Fock SCF calculation will be
 performed using Pulay DIIS extrapolation
 SCF converges when DIIS error is below 1.0E-07
 ---------------------------------------
  Cycle       Energy         DIIS Error
 ---------------------------------------
    1    -115.2649349571      6.06E-02
    2    -115.0207120450      6.82E-03
    3    -115.0493916637      3.69E-03
    4    -115.0576615973      6.76E-04
    5    -115.0581013829      1.18E-04
    6    -115.0581211276      2.88E-05
    7    -115.0581226900      9.46E-06
    8    -115.0581228319      2.28E-06
    9    -115.0581228437      4.28E-07
   10    -115.0581228441      8.04E-08 Convergence criterion met
 ---------------------------------------
 One-Electron    Energy =  -236.8344803341
 Total Coulomb   Energy =    96.2487647211
 Alpha Exchange  Energy =    -7.4089098892
 Beta  Exchange  Energy =    -7.4089098892
 DFT   Exchange  Energy =     0.0000000000
 DFT Correlation Energy =     0.0000000000
 Nuclear Repu.   Energy =    40.3454125474
 Nuclear Attr.   Energy =  -351.6343775637
 Kinetic         Energy =   114.7998972295
 SCF time:  CPU 1.26 s  wall 2.09 s
 Final Alpha MO Eigenvalues
            1           2           3           4           5           6
    1 -20.5720333 -11.2836465  -1.3645693  -0.9155993  -0.6872676  -0.6233927
            7           8           9          10          11          12
    1  -0.5973905  -0.4960494  -0.4463471   0.0342630   0.0512992   0.0580911
           13          14          15          16          17          18
    1   0.0665722   0.1143660   0.1393963   0.1528520   0.1720196   0.2075124
           19          20          21          22          23          24
    1   0.2221783   0.2425569   0.2785933   0.2791533   0.3206311   0.3358777
           25          26          27          28          29          30
    1   0.3847531   0.3947378   0.4162770   0.4354420   0.4377772   0.4717325
           31          32          33          34          35          36
    1   0.4721743   0.5169123   0.5568407   0.5735582   0.6089615   0.6237287
           37          38          39          40          41          42
    1   0.6357543   0.6513058   0.6621359   0.6710439   0.7341184   0.7451406
           43          44          45          46          47          48
    1   0.7530670   0.9075715   0.9610937   0.9922631   1.0412653   1.1026230
           49          50          51          52          53          54
    1   1.2001642   1.2287292   1.2429271   1.3734867   1.4344319   1.5283141
           55          56          57          58          59          60
    1   1.6093077   1.7267948   1.7535149   1.7797541   1.7883817   1.8683479
           61          62          63          64          65          66
    1   1.9035336   2.0895935   2.0911503   2.1077815   2.1690908   2.2096844
           67          68          69          70          71          72
    1   2.2415404   2.2909328   2.3881600   2.4997065   2.6235073   2.6690834
           73          74          75          76          77          78
    1   2.7380517   2.8503826   2.8710016   3.0399564   3.1679868   3.7365652
           79          80          81          82
    1   3.7627696   3.7866335   3.8961629   4.2252797
 SCF   energy in the final basis set = -115.05812284
 Total energy in the final basis set = -115.05812284
Exporting Density Matrix to file 'Densmat_SCF.txt'.
Export successful

 --------------------------------------------------------------

                    Orbital Energies (a.u.)
 --------------------------------------------------------------

 Alpha MOs
 -- Occupied --
-20.5720 -11.2836  -1.3646  -0.9156  -0.6873  -0.6234  -0.5974  -0.4960
 -0.4463
 -- Virtual --
  0.0343   0.0513   0.0581   0.0666   0.1144   0.1394   0.1529   0.1720
  0.2075   0.2222   0.2426   0.2786   0.2792   0.3206   0.3359   0.3848
  0.3947   0.4163   0.4354   0.4378   0.4717   0.4722   0.5169   0.5568
  0.5736   0.6090   0.6237   0.6358   0.6513   0.6621   0.6710   0.7341
  0.7451   0.7531   0.9076   0.9611   0.9923   1.0413   1.1026   1.2002
  1.2287   1.2429   1.3735   1.4344   1.5283   1.6093   1.7268   1.7535
  1.7798   1.7884   1.8683   1.9035   2.0896   2.0912   2.1078   2.1691
  2.2097   2.2415   2.2909   2.3882   2.4997   2.6235   2.6691   2.7381
  2.8504   2.8710   3.0400   3.1680   3.7366   3.7628   3.7866   3.8962
  4.2253
 --------------------------------------------------------------


                        RESTRICTED (RHF) MOLECULAR ORBITAL COEFFICIENTS
                         1         2         3         4         5         6
 eigenvalues:        -20.572   -11.284    -1.365    -0.916    -0.687    -0.623
   1  C     s        0.00005   1.00274  -0.01113  -0.01354  -0.00378  -0.00000
   2  C     s        0.00034   0.01282   0.27344   0.71824   0.08026   0.00000
   3  C     s        0.00525  -0.02760  -0.19035  -0.26628  -0.04607   0.00000
   4  C     s        0.00164  -0.00687  -0.00673   0.01512  -0.00269  -0.00000
   5  C     px       0.00074   0.00158   0.13058  -0.07823  -0.09052  -0.15141
   6  C     py      -0.00049  -0.00096  -0.07891   0.02952   0.36095  -0.24051
   7  C     pz      -0.00001   0.00002   0.00173  -0.01034   0.15924   0.45911
   8  C     px       0.00482   0.00286  -0.09033   0.01136   0.02729   0.05668
   9  C     py      -0.00235  -0.00154   0.06918   0.00257  -0.11843   0.09004
  10  C     pz       0.00036   0.00013   0.00645   0.00509  -0.05304  -0.17187
  11  C     px       0.00103   0.00047  -0.00771   0.00722   0.00271   0.00185
  12  C     py      -0.00023  -0.00035   0.00522   0.00457  -0.00654   0.00293
  13  C     pz       0.00022  -0.00003   0.00019   0.00477  -0.00253  -0.00560
  14  C     d 1     -0.00009  -0.00020  -0.01963   0.00081   0.02373  -0.00815
  15  C     d 2     -0.00003  -0.00002   0.00090   0.00118  -0.00945   0.00444
  16  C     d 3     -0.00005  -0.00014  -0.01432   0.00115   0.01597   0.01357
  17  C     d 4      0.00000   0.00002   0.00223  -0.00135   0.00230   0.00760
  18  C     d 5      0.00007   0.00015   0.01194  -0.00356   0.00113   0.00112
  19  C     d 1     -0.00128  -0.00066   0.02047   0.00404  -0.00850   0.02109
  20  C     d 2     -0.00013  -0.00022   0.00243   0.00256   0.02997  -0.00038
  21  C     d 3     -0.00081  -0.00038   0.01067   0.00234  -0.02215  -0.02781
  22  C     d 4      0.00003   0.00001   0.00268  -0.00057   0.01352  -0.02943
  23  C     d 5      0.00078   0.00055  -0.00807  -0.00524  -0.00404   0.00685
  24  O     s        1.00127   0.00022  -0.01221  -0.00345   0.00007   0.00000
  25  O     s        0.00536   0.00124   0.82687  -0.27819  -0.16910  -0.00000
  26  O     s       -0.01068  -0.00156  -0.02071   0.02170  -0.08062  -0.00000
  27  O     s       -0.00489   0.00022   0.05606  -0.04797  -0.02802   0.00000
  28  O     px      -0.00047  -0.00057  -0.03430  -0.27584   0.47088  -0.14467
  29  O     py       0.00212   0.00033   0.10150   0.06943   0.26639  -0.22980
  30  O     pz       0.00095  -0.00001   0.04186  -0.05460   0.29485   0.43866
  31  O     px       0.00261   0.00207  -0.05737   0.02094  -0.05099  -0.00599
  32  O     py      -0.00367  -0.00113  -0.01613   0.01990  -0.01993  -0.00951
  33  O     pz      -0.00106   0.00009  -0.02737   0.01733  -0.02726   0.01815
  34  O     px       0.00045   0.00074  -0.00229  -0.01210   0.01665  -0.00608
  35  O     py      -0.00050  -0.00023   0.00635  -0.00654   0.01451  -0.00966
  36  O     pz      -0.00011   0.00012   0.00257  -0.00741   0.01309   0.01843
  37  O     d 1      0.00005  -0.00003  -0.00318  -0.01223   0.01351  -0.00008
  38  O     d 2      0.00001  -0.00001   0.00399  -0.00275   0.01051   0.00686
  39  O     d 3      0.00002   0.00001  -0.00511  -0.00412   0.00187   0.00461
  40  O     d 4      0.00001  -0.00004   0.00303  -0.00441   0.00608  -0.00592
  41  O     d 5     -0.00002  -0.00003   0.00232   0.00180  -0.00729   0.00599
  42  O     d 1      0.00057   0.00105  -0.02095  -0.00647  -0.01187  -0.00027
  43  O     d 2     -0.00013  -0.00003  -0.00951   0.00729  -0.00062   0.01498
  44  O     d 3      0.00041   0.00052  -0.00229  -0.00870   0.00249   0.01019
  45  O     d 4     -0.00002   0.00023  -0.01279   0.00400  -0.01450  -0.01280
  46  O     d 5     -0.00018  -0.00012  -0.00026   0.00222  -0.01570   0.01304
  47  H 1   s       -0.00035   0.00076   0.06373   0.30913   0.24621  -0.41168
  48  H 1   s        0.00040   0.00792  -0.04161  -0.11829  -0.02536   0.01607
  49  H 1   s       -0.00010   0.00102  -0.00227  -0.00405   0.00433  -0.00851
  50  H 1   px      -0.00012  -0.00002   0.00048  -0.00522  -0.00397   0.00061
  51  H 1   py       0.00017   0.00018  -0.00884  -0.02010  -0.00622   0.01541
  52  H 1   pz      -0.00005  -0.00006   0.00346   0.01074   0.00900  -0.00228
  53  H 1   px      -0.00036  -0.00020  -0.00058  -0.00274   0.00484  -0.01617
  54  H 1   py       0.00022  -0.00229  -0.00235  -0.01020  -0.02538   0.03604
  55  H 1   pz      -0.00003   0.00129  -0.00101   0.00312  -0.00537  -0.02540
  56  H 2   s       -0.00035   0.00076   0.06373   0.30913   0.24621   0.41168
  57  H 2   s        0.00040   0.00792  -0.04161  -0.11829  -0.02536  -0.01607
  58  H 2   s       -0.00010   0.00102  -0.00227  -0.00405   0.00433   0.00851
  59  H 2   px      -0.00016  -0.00009   0.00427   0.00574   0.00250   0.00443
  60  H 2   py       0.00010   0.00007  -0.00283  -0.00269   0.00406  -0.00742
  61  H 2   pz       0.00009   0.00015  -0.00801  -0.02251  -0.01061  -0.01298
  62  H 2   px      -0.00037   0.00102  -0.00038   0.00173   0.00786   0.03475
  63  H 2   py       0.00020  -0.00035  -0.00204  -0.00310  -0.02059  -0.00654
  64  H 2   pz       0.00001  -0.00241  -0.00160  -0.01043  -0.01452  -0.03091
  65  H 3   s       -0.00017   0.00091   0.05749   0.32721  -0.11463  -0.00000
  66  H 3   s        0.00145   0.00786  -0.01839  -0.12259   0.00513  -0.00000
  67  H 3   s        0.00038   0.00074   0.00098   0.00799   0.00169  -0.00000
  68  H 3   px      -0.00015  -0.00014   0.00736   0.01615  -0.00519  -0.00290
  69  H 3   py       0.00001  -0.00008   0.00189   0.01396   0.00216  -0.00461
  70  H 3   pz      -0.00004  -0.00009   0.00342   0.01264  -0.00058   0.00880
  71  H 3   px      -0.00001   0.00204   0.00921   0.00569  -0.00747   0.00442
  72  H 3   py       0.00017   0.00095   0.00375   0.00915  -0.00055   0.00703
  73  H 3   pz       0.00008   0.00117   0.00500   0.00667  -0.00275  -0.01341
  74  H 4   s        0.00057  -0.00055   0.31163  -0.26122   0.53595  -0.00000
  75  H 4   s        0.00115  -0.00124  -0.14944   0.15828  -0.22453  -0.00000
  76  H 4   s       -0.00030  -0.00044   0.00220   0.00168  -0.00462   0.00000
  77  H 4   px       0.00016  -0.00021  -0.02704   0.01452  -0.02586  -0.00338
  78  H 4   py       0.00025   0.00015  -0.01806   0.01463  -0.02090  -0.00537
  79  H 4   pz       0.00018   0.00001  -0.01838   0.01245  -0.01948   0.01026
  80  H 4   px      -0.00035   0.00055  -0.00378  -0.01084   0.01054  -0.00173
  81  H 4   py      -0.00061   0.00033  -0.00408  -0.00883   0.00308  -0.00275
  82  H 4   pz      -0.00043   0.00035  -0.00338  -0.00820   0.00509   0.00525
                         7         8         9        10        11        12
 eigenvalues:         -0.597    -0.496    -0.446     0.034     0.051     0.058
   1  C     s        0.00012   0.00002   0.00000   0.01757  -0.01278   0.00000
   2  C     s       -0.00603   0.02649  -0.00000  -0.04211   0.03414  -0.00000
   3  C     s        0.00839  -0.02114  -0.00000  -0.70381   0.55729  -0.00000
   4  C     s       -0.01406   0.02784  -0.00000  -3.84524   1.83855   0.00000
   5  C     px       0.52961  -0.10748   0.10229   0.04670  -0.02076   0.02952
   6  C     py      -0.00521  -0.42135   0.16249  -0.05480  -0.02941   0.04689
   7  C     pz       0.17193  -0.25618  -0.31016  -0.01330  -0.02225  -0.08951
   8  C     px      -0.14217   0.00790  -0.01387  -0.00980  -0.31279   0.05879
   9  C     py      -0.03404   0.11354  -0.02204  -0.06272  -0.04988   0.09339
  10  C     pz      -0.06472   0.06208   0.04206  -0.03609  -0.12929  -0.17827
  11  C     px      -0.00281   0.00106   0.00886  -0.30566  -0.83507   0.55466
  12  C     py       0.00287  -0.01555   0.01407  -0.02704  -0.22088   0.88105
  13  C     pz       0.00058  -0.00780  -0.02686  -0.11497  -0.39113  -1.68180
  14  C     d 1     -0.03636   0.00648  -0.00140   0.00099   0.00659   0.00179
  15  C     d 2     -0.00699   0.00809  -0.02506   0.00158   0.00294  -0.00131
  16  C     d 3     -0.01660  -0.01480  -0.01463   0.00045   0.00264  -0.00320
  17  C     d 4     -0.00721   0.02473   0.02401  -0.00031   0.00123  -0.00137
  18  C     d 5      0.01317   0.02667  -0.02244  -0.00245  -0.00410  -0.00054
  19  C     d 1      0.01808  -0.00064  -0.00234   0.01758   0.05844  -0.03251
  20  C     d 2      0.02541  -0.01603   0.00145  -0.00330   0.00922  -0.00078
  21  C     d 3     -0.00557   0.01523   0.00401   0.00389   0.02993   0.04198
  22  C     d 4      0.01581  -0.01701   0.00203   0.01196   0.00760   0.04656
  23  C     d 5     -0.00895  -0.01019   0.00047   0.01285  -0.02530  -0.01175
  24  O     s       -0.00166  -0.00126  -0.00000  -0.00082   0.00038  -0.00000
  25  O     s       -0.13240  -0.17947   0.00000  -0.05222  -0.05904   0.00000
  26  O     s       -0.03437  -0.07981   0.00000  -0.02377  -0.05162   0.00000
  27  O     s       -0.01457  -0.14773   0.00000   0.71524  -0.89029   0.00000
  28  O     px      -0.41892   0.01391  -0.21489  -0.06465  -0.02616   0.00267
  29  O     py       0.45297   0.48355  -0.34135  -0.00997  -0.04559   0.00425
  30  O     pz       0.09914   0.25791   0.65158  -0.02654  -0.03251  -0.00811
  31  O     px       0.01855  -0.03106  -0.01366  -0.04613  -0.06666   0.00266
  32  O     py       0.00723  -0.00263  -0.02170   0.01235  -0.02441   0.00422
  33  O     pz       0.00991  -0.01162   0.04143  -0.00875  -0.03477  -0.00806
  34  O     px      -0.03180   0.02040  -0.02602  -0.47993  -0.44302  -0.07390
  35  O     py       0.02110   0.01845  -0.04134   0.17367  -0.10697  -0.11739
  36  O     pz       0.00057   0.01639   0.07891  -0.06730  -0.20214   0.22408
  37  O     d 1     -0.01468   0.00327  -0.00296   0.00165  -0.00014  -0.00055
  38  O     d 2      0.00406   0.00748   0.00416  -0.00054  -0.00158  -0.00091
  39  O     d 3     -0.00632  -0.00358   0.00660   0.00138  -0.00011   0.00012
  40  O     d 4     -0.00597   0.00558   0.00052  -0.00027   0.00060   0.00158
  41  O     d 5     -0.00589  -0.00025   0.00264  -0.00068   0.00249  -0.00099
  42  O     d 1     -0.00959  -0.00983  -0.00238  -0.01678  -0.01502  -0.00009
  43  O     d 2      0.00991   0.00202   0.00679  -0.00240  -0.00271  -0.00160
  44  O     d 3     -0.00357  -0.00401   0.00756  -0.00961  -0.00315  -0.00094
  45  O     d 4     -0.00735  -0.00408  -0.00262  -0.00079  -0.00846   0.00154
  46  O     d 5     -0.01601  -0.00339   0.00514   0.00913  -0.00304  -0.00144
  47  H 1   s       -0.00548  -0.29417   0.38762  -0.01846  -0.00065   0.02897
  48  H 1   s        0.04220   0.00801  -0.04729   0.50972  -0.21371  -0.25821
  49  H 1   s       -0.00578  -0.00051  -0.00280   1.09307  -0.41329  -4.40947
  50  H 1   px       0.00830  -0.00115   0.00094   0.00192   0.00197   0.00081
  51  H 1   py       0.00094   0.00324  -0.01131  -0.00025  -0.00166  -0.00571
  52  H 1   pz       0.00293  -0.01089   0.00157  -0.00079  -0.00025   0.00038
  53  H 1   px      -0.00791   0.01066  -0.00860  -0.02677   0.04760   0.03474
  54  H 1   py      -0.01424   0.01890  -0.00240  -0.07191   0.04554   0.09177
  55  H 1   pz      -0.00420  -0.00296   0.00861   0.06196   0.00834   0.01446
  56  H 2   s       -0.00549  -0.29417  -0.38762  -0.01846  -0.00065  -0.02897
  57  H 2   s        0.04220   0.00801   0.04729   0.50972  -0.21371   0.25821
  58  H 2   s       -0.00578  -0.00051   0.00280   1.09307  -0.41327   4.40948
  59  H 2   px       0.00816  -0.00697  -0.00437   0.00131   0.00195  -0.00229
  60  H 2   py       0.00072  -0.00601   0.00587  -0.00123  -0.00168   0.00336
  61  H 2   pz       0.00337   0.00676   0.00882   0.00108  -0.00021   0.00411
  62  H 2   px      -0.00511   0.00285   0.00254   0.02495   0.03271  -0.01325
  63  H 2   py      -0.00979   0.00650  -0.00723   0.01025   0.02189  -0.05763
  64  H 2   pz      -0.01269   0.02072   0.00976  -0.09486   0.05348  -0.07963
  65  H 3   s       -0.45328   0.48516  -0.00000  -0.01106   0.00531   0.00000
  66  H 3   s        0.00809  -0.00059  -0.00000   0.27897  -0.84671  -0.00000
  67  H 3   s        0.00083  -0.00131  -0.00000   0.32217  -2.59249  -0.00001
  68  H 3   px      -0.00840   0.01427   0.00204   0.00342   0.00296   0.00140
  69  H 3   py      -0.01019   0.00225   0.00325  -0.00163  -0.00159   0.00223
  70  H 3   pz      -0.00811   0.00588  -0.00620   0.00027   0.00015  -0.00425
  71  H 3   px      -0.04023   0.02476  -0.00117   0.00201  -0.16765  -0.03922
  72  H 3   py      -0.01000   0.02246  -0.00186   0.02517  -0.08974  -0.06230
  73  H 3   pz      -0.01851   0.01993   0.00356   0.01385  -0.10230   0.11892
  74  H 4   s       -0.08785   0.35336  -0.00000   0.01444   0.02599  -0.00000
  75  H 4   s        0.02617  -0.02855   0.00000   0.12692   0.67515  -0.00000
  76  H 4   s        0.01356  -0.00263   0.00000   1.09290   2.39187  -0.00001
  77  H 4   px      -0.00604  -0.02170  -0.00602   0.00186   0.00159  -0.00160
  78  H 4   py       0.01250  -0.00478  -0.00956   0.00426  -0.00111  -0.00254
  79  H 4   pz       0.00456  -0.00966   0.01824   0.00285  -0.00005   0.00485
  80  H 4   px       0.00564  -0.02595  -0.00313   0.01001  -0.11750   0.01289
  81  H 4   py      -0.00380   0.00910  -0.00498   0.00368  -0.08713   0.02047
  82  H 4   pz      -0.00013  -0.00379   0.00950   0.00523  -0.08440  -0.03908
                        13        14        15        16        17        18
 eigenvalues:          0.067     0.114     0.139     0.153     0.172     0.208
   1  C     s       -0.00174  -0.00217  -0.01874  -0.00000  -0.06512  -0.00300
   2  C     s        0.01426  -0.00078  -0.12223  -0.00000  -0.46915   0.02837
   3  C     s        0.05619  -0.08094   0.59959   0.00000   2.22177   0.15843
   4  C     s        0.15090   1.99015   2.27565   0.00001   9.30351  -3.07668
   5  C     px       0.05921   0.02780  -0.04035   0.04304   0.15144   0.00006
   6  C     py       0.05861  -0.03393  -0.11610   0.06837  -0.07043  -0.03990
   7  C     pz       0.05023  -0.00861  -0.07413  -0.13052   0.01305  -0.02088
   8  C     px       0.02535   0.64582   0.51770  -0.42726  -0.47792   0.26810
   9  C     py      -0.02782  -0.43352   1.02707  -0.67867   0.03427   0.43757
  10  C     pz      -0.00621  -0.01412   0.70879   1.29550  -0.13967   0.31765
  11  C     px       0.68212   2.54254   2.56929  -1.36155  -1.15328  -0.82060
  12  C     py       1.16315  -1.96974   2.92543  -2.16275  -0.53878  -1.13208
  13  C     pz       0.83431  -0.19336   2.37989   4.12842  -0.66262  -0.86371
  14  C     d 1      0.00007  -0.00257   0.00413   0.00294  -0.00080  -0.00441
  15  C     d 2     -0.00157  -0.00071   0.00524  -0.00109  -0.00141  -0.01843
  16  C     d 3      0.00228  -0.00164   0.00155  -0.00456   0.00017   0.01893
  17  C     d 4     -0.00270   0.00025  -0.00031  -0.00319  -0.00048  -0.02507
  18  C     d 5     -0.00264   0.00229  -0.00746   0.00004   0.00099  -0.01831
  19  C     d 1      0.01909  -0.15557  -0.06688  -0.05388   0.06115   0.04961
  20  C     d 2      0.08337   0.01859  -0.13693   0.19797   0.03098   0.06792
  21  C     d 3     -0.03753  -0.07310   0.11424   0.20040   0.02630  -0.05896
  22  C     d 4      0.04238  -0.04545  -0.17963  -0.09809   0.00753   0.10782
  23  C     d 5     -0.02447  -0.01206  -0.10957   0.15523  -0.04747   0.07485
  24  O     s        0.00268   0.01023  -0.00007  -0.00000  -0.00647  -0.01949
  25  O     s       -0.04039  -0.06839  -0.02704  -0.00000  -0.07590  -0.12957
  26  O     s       -0.08212  -0.27655  -0.00559   0.00000   0.08019   0.28806
  27  O     s       -0.49478  -3.53243  -0.71087   0.00000  -2.04468   6.05661
  28  O     px      -0.01593   0.02471  -0.04895   0.01842  -0.09417  -0.07850
  29  O     py      -0.01774  -0.01195  -0.08316   0.02926   0.02108  -0.17859
  30  O     pz      -0.01455   0.00189  -0.05971  -0.05585  -0.02001  -0.11945
  31  O     px      -0.00806   0.14280  -0.03710   0.00419   0.03365   0.20287
  32  O     py      -0.00585  -0.14243  -0.03819   0.00665  -0.02027   0.09156
  33  O     pz      -0.00572  -0.02752  -0.03224  -0.01270   0.00048   0.11488
  34  O     px      -0.32830   0.80171  -0.39814   0.19610   0.93979   0.48338
  35  O     py      -0.08996  -0.38197  -0.46766   0.31150  -0.25015   2.76594
  36  O     pz      -0.15540   0.06430  -0.37630  -0.59461   0.17890   1.60843
  37  O     d 1     -0.00019   0.00123   0.00134   0.00040  -0.00166   0.00552
  38  O     d 2      0.00073  -0.00124  -0.00011  -0.00071  -0.00053  -0.00732
  39  O     d 3     -0.00068   0.00047   0.00013  -0.00099  -0.00081   0.00442
  40  O     d 4      0.00054   0.00091   0.00111   0.00006  -0.00018   0.00136
  41  O     d 5      0.00022   0.00198   0.00114  -0.00048   0.00103   0.00639
  42  O     d 1     -0.00431   0.02360   0.01155   0.00047   0.03757   0.02352
  43  O     d 2     -0.00055   0.00282  -0.00386  -0.01611   0.00519   0.03873
  44  O     d 3      0.00362   0.02114  -0.00073  -0.01120   0.02350  -0.02262
  45  O     d 4     -0.00911  -0.00983   0.01327   0.01350  -0.00107   0.04096
  46  O     d 5     -0.01123  -0.02890   0.01827  -0.01396  -0.02459   0.01385
  47  H 1   s        0.02119   0.04135  -0.06726   0.13358   0.00625   0.03212
  48  H 1   s        0.02939   0.38231  -1.79994   2.58242  -1.43218  -0.64718
  49  H 1   s       -2.70708   1.67873  -2.77890   5.24981  -0.95747   1.09197
  50  H 1   px       0.00348   0.00641   0.00508  -0.00176   0.00379   0.00682
  51  H 1   py      -0.00211  -0.00208   0.01878  -0.01700   0.02108  -0.00306
  52  H 1   pz       0.00487  -0.00329  -0.00359   0.01252  -0.01274  -0.01027
  53  H 1   px      -0.03382  -0.07463  -0.00612  -0.07111   0.18601  -0.16649
  54  H 1   py      -0.05022  -0.04820   0.28202  -0.51496   0.27853   0.30211
  55  H 1   pz      -0.10189   0.05695  -0.27843   0.18723  -0.15224  -0.23998
  56  H 2   s        0.02119   0.04135  -0.06726  -0.13358   0.00625   0.03212
  57  H 2   s        0.02939   0.38231  -1.79991  -2.58244  -1.43218  -0.64717
  58  H 2   s       -2.70705   1.67873  -2.77885  -5.24984  -0.95746   1.09198
  59  H 2   px       0.00578   0.00435  -0.00213  -0.00874  -0.00815   0.00161
  60  H 2   py       0.00155  -0.00535   0.00733   0.00033   0.00212  -0.01133
  61  H 2   pz      -0.00212   0.00295   0.01825   0.01930   0.02345   0.00552
  62  H 2   px      -0.06454  -0.02369  -0.20838  -0.15800   0.01458  -0.33021
  63  H 2   py      -0.09903   0.03271  -0.03927   0.15102   0.00622   0.04203
  64  H 2   pz      -0.00873  -0.09750   0.33486   0.50747   0.36757   0.25645
  65  H 3   s       -0.03582   0.02926   0.13890   0.00000  -0.05230  -0.05135
  66  H 3   s       -0.17616   0.57956   2.14152   0.00001  -2.03852   0.46901
  67  H 3   s        4.46130  -0.78040   5.31372   0.00003  -3.10121  -0.63960
  68  H 3   px      -0.00441   0.00210   0.01619  -0.00187  -0.02804   0.00706
  69  H 3   py      -0.00243  -0.00376   0.00313  -0.00297  -0.01466   0.00751
  70  H 3   pz      -0.00273  -0.00128   0.00698   0.00567  -0.01693   0.00626
  71  H 3   px      -0.04986   0.02945   0.33565   0.04532  -0.22052   0.21580
  72  H 3   py       0.00844   0.16366   0.17335   0.07199  -0.25760   0.11173
  73  H 3   pz      -0.01202   0.09545   0.20151  -0.13742  -0.20768   0.12970
  74  H 4   s        0.00693   0.04279   0.05101   0.00000   0.00776   0.01239
  75  H 4   s        0.20784   0.44593   0.24918  -0.00000   0.01119  -3.77737
  76  H 4   s        1.32041  -2.90766  -1.05080  -0.00001   0.08252  -0.85183
  77  H 4   px       0.00460   0.00146  -0.00538   0.00029   0.00836   0.04480
  78  H 4   py       0.00309  -0.00161   0.01441   0.00046   0.00542   0.02951
  79  H 4   pz       0.00314  -0.00036   0.00577  -0.00089   0.00560   0.03023
  80  H 4   px      -0.02219  -0.11334   0.06303  -0.01111  -0.06293   0.85772
  81  H 4   py      -0.10312  -0.04294  -0.05109  -0.01764   0.06213   0.31151
  82  H 4   pz      -0.06134  -0.05987  -0.00598   0.03368   0.01179   0.44607
                        19        20        21        22        23        24
 eigenvalues:          0.222     0.243     0.279     0.279     0.321     0.336
   1  C     s        0.02923   0.00000  -0.00000  -0.00039   0.00481   0.01025
   2  C     s        0.26453  -0.00000  -0.00000  -0.03422   0.04662   0.01781
   3  C     s       -1.13458  -0.00000   0.00000   0.05870  -0.22388   0.27207
   4  C     s        0.02491  -0.00000   0.00009   1.98745  -2.76523  -1.87511
   5  C     px       0.05930   0.00782   0.10934  -0.18776  -0.05769   0.24430
   6  C     py      -0.08980   0.01242   0.17369  -0.23418  -0.20514  -0.11917
   7  C     pz      -0.02749  -0.02370  -0.33158  -0.18458  -0.12649   0.01814
   8  C     px       0.71439  -0.11162   0.21700   0.39729  -1.29839  -0.90499
   9  C     py      -0.21313  -0.17731   0.34463  -0.55535  -0.28963   1.06576
  10  C     pz       0.12396   0.33845  -0.65791  -0.15985  -0.57994   0.25986
  11  C     px       0.24233   0.42354  -0.41010   1.50518  -1.78934  -0.77909
  12  C     py       0.10802   0.67277  -0.65151   0.52878   0.99895   1.42857
  13  C     pz       0.13651  -1.28423   1.24374   0.77333  -0.06681   0.49145
  14  C     d 1     -0.00699  -0.00874  -0.01964  -0.04001   0.02994   0.07596
  15  C     d 2      0.00827  -0.00075   0.01910  -0.03016  -0.00422  -0.01506
  16  C     d 3     -0.01185   0.01092   0.03821  -0.00261   0.03561   0.04593
  17  C     d 4      0.00776   0.01299   0.01091  -0.02265  -0.02248   0.00942
  18  C     d 5      0.00723  -0.00364   0.01006   0.01363  -0.04440  -0.00777
  19  C     d 1     -0.22045   0.21427   0.29431  -0.13559   0.42299   0.14751
  20  C     d 2     -0.11009   0.25277  -0.19439   0.38674   0.09821   0.06537
  21  C     d 3     -0.07163  -0.11408  -0.51231  -0.25487  -0.02017   0.18382
  22  C     d 4     -0.06155  -0.52468  -0.24433   0.10509   0.38925  -0.15421
  23  C     d 5      0.11745   0.29455  -0.07027  -0.14479   0.29358  -0.36691
  24  O     s       -0.01001   0.00000   0.00000   0.01844  -0.01659  -0.01602
  25  O     s       -0.20977  -0.00000   0.00001   0.16833  -0.23145  -0.15650
  26  O     s        0.04349  -0.00000  -0.00001  -0.21560   0.13365   0.13008
  27  O     s       -0.03866   0.00001  -0.00012  -2.23762   2.78197   2.50819
  28  O     px      -0.11267   0.06348  -0.02426   0.01045   0.05538   0.28688
  29  O     py      -0.02037   0.10084  -0.03852   0.15449  -0.06286  -0.04083
  30  O     pz      -0.04783  -0.19249   0.07356   0.08437  -0.01467   0.07322
  31  O     px       0.19098   0.00617  -0.02374   0.16339  -0.24755  -0.19796
  32  O     py       0.00673   0.00980  -0.03772   0.02760   0.12965   0.22910
  33  O     pz       0.06651  -0.01872   0.07200   0.06834  -0.01372   0.05473
  34  O     px       2.51603  -0.55787   0.25344   0.89605  -2.37254   0.21083
  35  O     py      -1.17965  -0.88616   0.40248  -0.18959  -0.21293  -0.04046
  36  O     pz       0.21180   1.69155  -0.76829   0.19626  -0.89402   0.04834
  37  O     d 1     -0.01177  -0.00182  -0.00599  -0.00122   0.01022  -0.00731
  38  O     d 2      0.00449  -0.01256  -0.00093  -0.00331   0.00629  -0.00259
  39  O     d 3     -0.00829  -0.00586   0.00721  -0.00296  -0.00121   0.00046
  40  O     d 4     -0.00052   0.01361   0.00927   0.00439   0.00904  -0.00656
  41  O     d 5      0.00056  -0.01163  -0.00285   0.01040   0.00281  -0.00398
  42  O     d 1      0.07011   0.00756   0.00243   0.03226  -0.05522  -0.04351
  43  O     d 2     -0.01022   0.06322   0.01751  -0.00163  -0.03797   0.00412
  44  O     d 3      0.02558   0.03162   0.00833   0.04197  -0.01565  -0.03481
  45  O     d 4      0.03190  -0.06628  -0.01882  -0.03054  -0.01498   0.00865
  46  O     d 5      0.02450   0.05800   0.01617  -0.06021   0.04000   0.03004
  47  H 1   s       -0.03523  -0.04766  -0.13039   0.07717   0.09824   0.03440
  48  H 1   s        0.93901   0.86397  -1.87145   0.68593   1.16440  -0.68605
  49  H 1   s        0.57656  -0.85006   2.18004  -1.28885  -0.70895  -0.79025
  50  H 1   px      -0.01001  -0.01454  -0.00765  -0.00118   0.00460   0.01204
  51  H 1   py      -0.00317   0.01071  -0.00211   0.00204  -0.00071  -0.00479
  52  H 1   pz       0.00581  -0.00506  -0.00102  -0.00496  -0.00209  -0.00078
  53  H 1   px       0.13570  -0.47017  -0.33350  -0.13339   0.00141   0.59950
  54  H 1   py      -0.29786  -0.30143  -0.06063  -0.19154  -0.22049   0.11080
  55  H 1   pz       0.20171   0.06057  -0.32106  -0.51869  -0.06826  -0.44304
  56  H 2   s       -0.03523   0.04766   0.13039   0.07716   0.09824   0.03440
  57  H 2   s        0.93900  -0.86396   1.87153   0.68573   1.16440  -0.68605
  58  H 2   s        0.57656   0.85007  -2.18017  -1.28860  -0.70894  -0.79025
  59  H 2   px      -0.00487   0.01734   0.00641  -0.00387   0.00305   0.01097
  60  H 2   py       0.00499  -0.00626   0.00013  -0.00223  -0.00316  -0.00649
  61  H 2   pz      -0.00977  -0.00344   0.00479   0.00319   0.00259   0.00246
  62  H 2   px       0.28495   0.29204   0.41897  -0.31195   0.02372   0.26627
  63  H 2   py      -0.06077   0.01848   0.19640  -0.47512  -0.18505  -0.41853
  64  H 2   pz      -0.25086   0.47954   0.06180   0.02258  -0.13590   0.56736
  65  H 3   s       -0.00211   0.00000  -0.00000  -0.10381  -0.19345   0.13241
  66  H 3   s        1.78600  -0.00000  -0.00002  -0.59273  -3.63222   1.05782
  67  H 3   s        0.30359  -0.00001   0.00014   2.61826   0.21449   1.06333
  68  H 3   px      -0.00522   0.00284   0.00175  -0.00812   0.00950   0.00983
  69  H 3   py       0.00766   0.00452   0.00278   0.01535  -0.01102  -0.00666
  70  H 3   pz       0.00229  -0.00862  -0.00530   0.00536  -0.00264  -0.00024
  71  H 3   px       0.62935   0.09149   0.20531  -0.01644  -0.03864   0.02281
  72  H 3   py       0.06598   0.14533   0.32614   0.35772  -0.62242  -0.14583
  73  H 3   pz       0.24213  -0.27742  -0.62251   0.18203  -0.33881  -0.06887
  74  H 4   s        0.02078  -0.00000  -0.00000  -0.07108   0.28465  -0.16144
  75  H 4   s       -1.02873  -0.00001  -0.00002  -0.39298   1.00811  -0.28658
  76  H 4   s       -2.10634  -0.00000  -0.00003  -0.50857   2.02505   0.79938
  77  H 4   px       0.02769  -0.00268   0.00224   0.01769  -0.01008   0.00807
  78  H 4   py       0.00944  -0.00426   0.00355  -0.00785  -0.00202  -0.00694
  79  H 4   pz       0.01408   0.00813  -0.00678   0.00172  -0.00439  -0.00097
  80  H 4   px       0.31578   0.02445  -0.13530  -0.20347   0.51484  -0.64750
  81  H 4   py       0.50978   0.03883  -0.21492  -0.34333   0.02596  -0.10777
  82  H 4   pz       0.37120  -0.07412   0.41020  -0.24700   0.18340  -0.27000
                        25        26        27        28        29        30
 eigenvalues:          0.385     0.395     0.416     0.435     0.438     0.472
   1  C     s       -0.01095   0.00000   0.02316  -0.02339   0.00000   0.00001
   2  C     s        0.16554  -0.00000  -0.15781   0.00556  -0.00000  -0.00007
   3  C     s        0.48635  -0.00001  -1.09056   0.94169  -0.00002  -0.00068
   4  C     s        3.23920  -0.00004  -3.51383   1.30472  -0.00003  -0.00251
   5  C     px      -0.13171  -0.07794   0.00551   0.16560   0.01440  -0.02381
   6  C     py       0.14728  -0.12381   0.04064   0.11731   0.02288  -0.03773
   7  C     pz       0.03372   0.23633   0.02311   0.11607  -0.04368   0.07208
   8  C     px      -1.01979  -0.26654   0.90523   2.01137   0.85407  -0.84676
   9  C     py       1.14383  -0.42342   0.30191   2.33767   1.35665  -1.34496
  10  C     pz       0.26289   0.80820   0.45671   1.88791  -2.58981   2.56742
  11  C     px      -0.11015  -0.80071   0.78194   2.17618   0.51487  -0.66878
  12  C     py       1.26003  -1.27191   0.44128   2.13927   0.81787  -1.06206
  13  C     pz       0.62380   2.42785   0.48905   1.83837  -1.56134   2.02756
  14  C     d 1      0.03804  -0.02695  -0.00417  -0.03196   0.02051  -0.00410
  15  C     d 2     -0.02882   0.00506  -0.03187  -0.03848  -0.02098   0.02459
  16  C     d 3      0.02805   0.03855   0.00006   0.01643  -0.04058   0.02150
  17  C     d 4      0.00507   0.03358   0.00757  -0.03990  -0.01049  -0.01586
  18  C     d 5      0.01694  -0.00474   0.04389  -0.00844  -0.01141   0.02017
  19  C     d 1      0.20799   0.33638  -0.43478  -0.28273  -0.00701  -0.36757
  20  C     d 2      0.30902   0.18613   0.60750  -0.33281  -0.12066   0.50719
  21  C     d 3      0.13805  -0.31743  -0.28548   0.15634  -0.07006   0.81341
  22  C     d 4     -0.11929  -0.63839  -0.21012  -0.37181   0.11604   0.07253
  23  C     d 5     -0.57550   0.27769  -0.68992  -0.11050  -0.10818   0.31981
  24  O     s       -0.02102   0.00000   0.01253   0.00634  -0.00000  -0.00000
  25  O     s       -0.12406   0.00000   0.08536  -0.00048   0.00000  -0.00001
  26  O     s        0.28445  -0.00001  -0.19094  -0.09763   0.00000   0.00003
  27  O     s        1.89218  -0.00004  -3.47813  -1.24747   0.00000   0.00293
  28  O     px       0.05498   0.02120  -0.17022   0.00847   0.03836  -0.01932
  29  O     py       0.00639   0.03368  -0.09420   0.06804   0.06094  -0.03053
  30  O     pz       0.02148  -0.06428  -0.10549   0.03843  -0.11632   0.05844
  31  O     px      -0.18261  -0.01725   0.00434   0.01190   0.04417   0.04659
  32  O     py       0.26565  -0.02741  -0.16224  -0.04120   0.07016   0.07411
  33  O     pz       0.07894   0.05231  -0.08356  -0.01766  -0.13392  -0.14119
  34  O     px      -0.74188   0.48887   0.09471  -0.60072   0.08242   0.16637
  35  O     py       0.00533   0.77652  -1.99388  -0.59911   0.13090   0.26528
  36  O     pz      -0.24190  -1.48229  -1.01331  -0.51199  -0.24984  -0.50514
  37  O     d 1      0.00353  -0.00500   0.00825  -0.00958  -0.01266  -0.00933
  38  O     d 2      0.00242   0.00859   0.01024  -0.00244   0.00134   0.00296
  39  O     d 3      0.00564   0.01217   0.00011  -0.00482   0.01742   0.01414
  40  O     d 4     -0.00581  -0.00050   0.00384  -0.00102   0.01669   0.01056
  41  O     d 5     -0.01281   0.00583  -0.00791   0.00537  -0.00314  -0.00059
  42  O     d 1     -0.06690   0.02693  -0.06448   0.03900   0.05721   0.02193
  43  O     d 2     -0.01331   0.00908  -0.05597  -0.01019   0.00357  -0.03500
  44  O     d 3     -0.03585  -0.02923   0.01647   0.02141  -0.07243  -0.05165
  45  O     d 4     -0.00536  -0.04598  -0.06402   0.00890  -0.08387  -0.00013
  46  O     d 5      0.03665   0.01713  -0.01273   0.00452   0.02260  -0.02320
  47  H 1   s       -0.12078   0.06346   0.07377   0.04490   0.05358  -0.08211
  48  H 1   s       -2.43647   1.28296   1.21246  -3.00919  -3.76110   4.71207
  49  H 1   s       -1.15136   2.05259   0.32442  -1.37189  -1.57895   1.90715
  50  H 1   px       0.00995   0.00058  -0.00667  -0.00377  -0.00011  -0.01082
  51  H 1   py       0.00983  -0.01667  -0.01412   0.01663   0.02306  -0.01400
  52  H 1   pz      -0.00798   0.00577   0.00014  -0.01201  -0.00385   0.01338
  53  H 1   px       0.16653  -1.14050   0.47773  -0.25179   0.22855   0.68731
  54  H 1   py      -0.34800   0.28228  -0.23094   0.31793   1.23404  -1.18684
  55  H 1   pz      -0.48763  -0.32278  -0.84539  -0.88084  -0.22371   0.08907
  56  H 2   s       -0.12078  -0.06346   0.07377   0.04490  -0.05358   0.08213
  57  H 2   s       -2.43645  -1.28289   1.21247  -3.00898   3.76124  -4.71135
  58  H 2   s       -1.15139  -2.05257   0.32443  -1.37182   1.57902  -1.90680
  59  H 2   px       0.00213  -0.00741  -0.00202  -0.01305   0.00769  -0.00076
  60  H 2   py      -0.00260   0.00582  -0.00674   0.00187  -0.01102  -0.00439
  61  H 2   pz       0.01575   0.01492  -0.01394   0.01616  -0.01913   0.02173
  62  H 2   px      -0.00523   1.18557   0.05714  -0.71163   0.22239  -0.91841
  63  H 2   py      -0.62088  -0.21068  -0.89901  -0.41257  -0.51777   0.82036
  64  H 2   pz       0.03324   0.18610   0.42984   0.51346  -1.14352   0.61084
  65  H 3   s       -0.07866   0.00000   0.03656  -0.08221   0.00000   0.00001
  66  H 3   s       -1.15658   0.00000   3.39821   5.34350  -0.00011   0.00024
  67  H 3   s        0.67773  -0.00001   0.91889   3.03571  -0.00008   0.00037
  68  H 3   px      -0.00075   0.00169   0.00164   0.02792  -0.00160   0.00167
  69  H 3   py      -0.01312   0.00268   0.00755   0.01455  -0.00254   0.00265
  70  H 3   pz      -0.00712  -0.00511   0.00450   0.01683   0.00484  -0.00506
  71  H 3   px      -0.36328   0.22280  -0.34255   0.86172  -0.30294  -0.00926
  72  H 3   py       0.70238   0.35391   1.17548   0.32232  -0.48119  -0.01475
  73  H 3   pz       0.24814  -0.67557   0.50283   0.45308   0.91850   0.02789
  74  H 4   s       -0.08063   0.00000   0.14349  -0.01333   0.00000  -0.00003
  75  H 4   s       -0.06348   0.00002   3.32446   0.16361   0.00001  -0.00129
  76  H 4   s        0.35660  -0.00000  -0.17861  -0.79331   0.00002   0.00002
  77  H 4   px       0.00515   0.00064  -0.02105  -0.01523  -0.00170  -0.00185
  78  H 4   py       0.00633   0.00102  -0.01367  -0.00106  -0.00270  -0.00293
  79  H 4   pz       0.00501  -0.00194  -0.01410  -0.00558   0.00516   0.00563
  80  H 4   px      -0.53882  -0.17834  -0.67128   0.78594  -0.32627  -0.22585
  81  H 4   py       0.25778  -0.28330   0.68758  -0.51930  -0.51822  -0.35898
  82  H 4   pz      -0.04265   0.54077   0.13881  -0.01282   0.98923   0.68563
                        31        32        33        34        35        36
 eigenvalues:          0.472     0.517     0.557     0.574     0.609     0.624
   1  C     s        0.04872  -0.00000   0.10045  -0.10985   0.08654   0.00000
   2  C     s       -0.25909  -0.00000   0.24806  -0.17005   0.06039   0.00000
   3  C     s       -2.60429   0.00000  -5.17230   6.24987  -4.63001  -0.00011
   4  C     s       -9.67882  -0.00000  -4.21589   1.40741   1.65258   0.00001
   5  C     px      -0.16358  -0.00414   0.38256  -0.17977  -0.35857   0.12370
   6  C     py       0.12128  -0.00658  -0.24401   0.00813  -0.10960   0.19650
   7  C     pz       0.00956   0.01256  -0.00166  -0.05503  -0.17567  -0.37508
   8  C     px      -0.10682   0.02090   0.92197  -2.21027  -0.89748  -0.62910
   9  C     py       0.13286   0.03321  -2.37225   0.12320   0.00001  -0.99930
  10  C     pz       0.03345  -0.06335  -0.93870  -0.66439  -0.29600   1.90755
  11  C     px      -0.39727   0.08767   0.61525  -1.10224   0.04984   0.34808
  12  C     py       0.38081   0.13925  -0.26154   0.12361  -0.31890   0.55290
  13  C     pz       0.06775  -0.26581   0.06590  -0.29877  -0.15062  -1.05540
  14  C     d 1     -0.01453  -0.00184  -0.00705   0.01549   0.01473   0.00585
  15  C     d 2      0.00310   0.00035   0.00284   0.00802   0.00257   0.00623
  16  C     d 3     -0.00334   0.00263  -0.00541   0.00407   0.00796  -0.00356
  17  C     d 4     -0.00983   0.00229   0.00028   0.00562   0.00122  -0.01373
  18  C     d 5     -0.01092  -0.00032   0.00109  -0.00656  -0.00767   0.00745
  19  C     d 1     -0.04064   0.10467   0.65473  -0.37774  -0.87080  -0.79253
  20  C     d 2     -0.36384  -0.18660   0.25404  -0.05599  -1.11409   1.28399
  21  C     d 3     -0.04124  -0.25931   0.23595  -0.09944   0.61741   1.87876
  22  C     d 4      0.15381   0.01641   0.17537  -0.18760  -1.31122  -0.01099
  23  C     d 5      0.59979  -0.12797  -0.29051  -0.04986  -0.50707   0.85598
  24  O     s       -0.00852   0.00000   0.01613   0.01547   0.00110  -0.00000
  25  O     s       -0.01963  -0.00000  -0.14871   0.00900   0.05223  -0.00000
  26  O     s        0.11546  -0.00000  -0.52717  -0.39246  -0.03364   0.00000
  27  O     s       11.30595  -0.00000   0.14349   0.61536  -6.96705  -0.00005
  28  O     px      -0.19981  -0.00095   0.07771  -0.16760  -0.14164  -0.05296
  29  O     py       0.26901  -0.00150  -0.12833   0.05913   0.01468  -0.08413
  30  O     pz       0.07501   0.00287  -0.04160  -0.02430  -0.03902   0.16059
  31  O     px       0.00946  -0.00424  -0.09464  -0.23955  -0.42804  -0.08545
  32  O     py       0.44907  -0.00674   0.07160   0.22808  -0.00897  -0.13572
  33  O     pz       0.23843   0.01286   0.00629   0.04048  -0.14586   0.25907
  34  O     px      -1.10116  -0.07642  -2.00456  -2.09852   1.47779  -0.22664
  35  O     py       2.12269  -0.12139   0.14599  -0.05407  -1.78066  -0.36003
  36  O     pz       0.74904   0.23171  -0.58463  -0.72042  -0.44547   0.68722
  37  O     d 1      0.01077   0.00504  -0.00192  -0.00639   0.00865  -0.00783
  38  O     d 2      0.00290  -0.00144  -0.01001  -0.00878  -0.01381   0.00017
  39  O     d 3      0.01290  -0.00754   0.00020  -0.00167   0.00922   0.01035
  40  O     d 4     -0.00983  -0.00584   0.00155  -0.00036  -0.00036   0.01090
  41  O     d 5     -0.02284   0.00045   0.01283   0.01091   0.00848  -0.00252
  42  O     d 1      0.03205  -0.01213  -0.05879  -0.01173  -0.00330   0.01521
  43  O     d 2      0.02092   0.00209   0.02179   0.03061   0.01283  -0.01713
  44  O     d 3     -0.04519   0.01723  -0.02273  -0.00511  -0.01320  -0.03113
  45  O     d 4      0.08839   0.01528  -0.02967  -0.01462   0.01154  -0.00640
  46  O     d 5      0.09868  -0.00230  -0.03760  -0.04575   0.00683  -0.00984
  47  H 1   s        0.03079   0.02753   0.02566  -0.00931   0.16805  -0.21582
  48  H 1   s        1.40254  -0.44464   3.55887  -2.20131   1.01332   6.53971
  49  H 1   s        0.71265  -0.21504   0.50405  -0.34350   0.57904  -1.39190
  50  H 1   px       0.00055   0.00901   0.00967  -0.00997  -0.01590   0.01882
  51  H 1   py       0.00024   0.01172  -0.01338  -0.00304   0.00228  -0.02750
  52  H 1   pz       0.00406   0.02778  -0.00016  -0.00754  -0.01264  -0.01208
  53  H 1   px      -0.61305  -0.39862  -0.69895   1.20909   1.02303  -0.76115
  54  H 1   py       0.21627  -0.58072  -1.09214   1.09346  -0.86865  -1.30981
  55  H 1   pz       0.28254  -1.21056   0.91932  -0.09038   1.22879   1.90798
  56  H 2   s        0.03075  -0.02753   0.02566  -0.00931   0.16805   0.21582
  57  H 2   s        1.40500   0.44461   3.55890  -2.20137   1.01337  -6.53968
  58  H 2   s        0.71363   0.21504   0.50405  -0.34349   0.57903   1.39189
  59  H 2   px       0.00234  -0.01792   0.01142  -0.01123  -0.02000  -0.01697
  60  H 2   py       0.00309  -0.02586  -0.01061  -0.00505  -0.00423   0.03043
  61  H 2   pz      -0.00138  -0.00079  -0.00545  -0.00370  -0.00022   0.00647
  62  H 2   px      -0.43545   0.76812   0.12220   0.70266   1.66511  -0.59559
  63  H 2   py       0.49719   1.16767   0.21221   0.28903   0.15126  -0.84535
  64  H 2   pz      -0.25482   0.09018  -1.57051   1.44516  -0.71809   2.20588
  65  H 3   s        0.05323  -0.00000   0.01295  -0.09300  -0.29854   0.00000
  66  H 3   s        0.87092   0.00003  -1.16883  -4.04977   3.95090   0.00007
  67  H 3   s        1.36298  -0.00000   0.63161  -1.19814  -1.04654   0.00001
  68  H 3   px       0.01980   0.00837   0.01924   0.00403   0.00441   0.01234
  69  H 3   py       0.00003   0.01329  -0.01456  -0.01712   0.00739   0.01960
  70  H 3   pz       0.00655  -0.02537  -0.00128  -0.00764   0.00532  -0.03741
  71  H 3   px      -0.16722  -0.31140  -1.31347  -1.76626   0.81638  -0.65429
  72  H 3   py      -0.39585  -0.49465   1.21094  -0.12596  -0.02941  -1.03934
  73  H 3   pz      -0.26253   0.94423   0.20119  -0.64850   0.25383   1.98400
  74  H 4   s       -0.11275  -0.00000   0.04898   0.02960   0.15114   0.00000
  75  H 4   s       -4.95885   0.00001   1.38910   1.75772   4.62012   0.00002
  76  H 4   s        0.08510  -0.00000   0.43997   1.19656  -0.33575  -0.00000
  77  H 4   px       0.01850  -0.00004   0.00438  -0.00219  -0.00443  -0.00764
  78  H 4   py       0.03676  -0.00006   0.00073  -0.00640  -0.01585  -0.01214
  79  H 4   pz       0.02536   0.00012   0.00182  -0.00407  -0.00977   0.02318
  80  H 4   px       0.87716   0.10582   0.53427   0.45738  -1.58674   0.13755
  81  H 4   py       0.50371   0.16810  -0.95578  -0.65528  -0.05443   0.21848
  82  H 4   pz       0.55293  -0.32087  -0.32450  -0.19244  -0.55182  -0.41707
                        37        38        39        40        41        42
 eigenvalues:          0.636     0.651     0.662     0.671     0.734     0.745
   1  C     s        0.09772  -0.02817   0.00000  -0.00108  -0.01913  -0.00000
   2  C     s        0.07253  -0.07173   0.00000  -0.14301  -0.27115  -0.00000
   3  C     s       -6.55915   1.53857  -0.00003  -1.78044   2.78528   0.00001
   4  C     s        0.17776  -0.47958   0.00001  -1.47924   1.77802   0.00005
   5  C     px      -0.14250  -0.02520  -0.06600  -0.07494  -0.40066   0.02067
   6  C     py       0.27846  -0.24368  -0.10483   0.11488   0.26612   0.03285
   7  C     pz       0.09888  -0.13597   0.20011   0.03547   0.00727  -0.06270
   8  C     px       1.49917   3.45234  -2.12456  -0.91754  -1.97852  -0.62025
   9  C     py       2.82946   3.71402  -3.37474  -4.43234   1.09790  -0.98519
  10  C     pz       1.97669   3.08432   6.44190  -2.62454  -0.07740   1.88064
  11  C     px       0.18685  -0.16977  -0.24904  -0.75023  -0.13035   0.17488
  12  C     py       0.52997  -0.92894  -0.39559  -0.01856   0.70620   0.27779
  13  C     pz       0.33927  -0.54263   0.75514  -0.25714   0.32698  -0.53023
  14  C     d 1      0.00907  -0.02488   0.00388  -0.02933  -0.06798  -0.00196
  15  C     d 2      0.00243   0.00131  -0.00291   0.00153  -0.00459   0.01274
  16  C     d 3      0.00906  -0.01438  -0.00697  -0.02336  -0.03428   0.01092
  17  C     d 4     -0.00563  -0.00275  -0.00291   0.00613  -0.01183  -0.00844
  18  C     d 5     -0.01521   0.00651  -0.00123   0.02190   0.01903   0.01050
  19  C     d 1     -0.71033  -0.10498   0.04376   0.18528   1.92535  -1.64316
  20  C     d 2      0.33435  -1.49282   0.44004   0.78863   1.14076  -0.50095
  21  C     d 3     -0.58688   1.21966   0.23171  -0.79164   1.06531   1.81864
  22  C     d 4      0.07145  -1.33715  -0.44879   1.04285  -0.16962   2.75940
  23  C     d 5      0.12977  -0.55207   0.40070   0.73952  -2.26896  -0.99858
  24  O     s       -0.00219  -0.03176   0.00000  -0.04700  -0.03967  -0.00000
  25  O     s        0.06915  -0.00965  -0.00000   0.12570   0.00021   0.00000
  26  O     s        0.08370   0.91741  -0.00001   1.59548   1.32833   0.00002
  27  O     s       -2.84792   3.51623  -0.00006   3.85432   0.42819  -0.00003
  28  O     px      -0.15088   0.22511  -0.00202   0.08873  -0.36661   0.07901
  29  O     py       0.09501   0.13360  -0.00321   0.15016   0.17010   0.12551
  30  O     pz       0.00001   0.14423   0.00612   0.10793  -0.03180  -0.23958
  31  O     px      -0.30979   0.52596   0.03599   0.87493  -0.76529   0.25058
  32  O     py       0.12307   0.03546   0.05719   0.21360   0.54947   0.39806
  33  O     pz      -0.03769   0.19204  -0.10917   0.40045   0.03547  -0.75982
  34  O     px       0.44134   1.23392   0.08792  -0.26273  -0.77978   0.03290
  35  O     py      -0.51221   1.05770   0.13965  -0.06084   0.02399   0.05226
  36  O     pz      -0.12279   0.96105  -0.26659  -0.11852  -0.24461  -0.09977
  37  O     d 1      0.00631   0.00265  -0.00034  -0.00268   0.01517   0.00491
  38  O     d 2      0.00477   0.00284  -0.00228   0.00351   0.00605   0.01785
  39  O     d 3     -0.00216   0.00132  -0.00105  -0.00357  -0.00296   0.00530
  40  O     d 4      0.00732  -0.00048   0.00249   0.00144   0.01631  -0.02263
  41  O     d 5      0.00352  -0.00471  -0.00211   0.00012   0.01169   0.01732
  42  O     d 1     -0.01923   0.06142   0.01347   0.09172   0.09215  -0.04157
  43  O     d 2      0.00833   0.00425  -0.00665  -0.02815   0.04617  -0.13516
  44  O     d 3      0.01338  -0.00607  -0.02198   0.10188   0.05594  -0.03441
  45  O     d 4     -0.04053   0.06473  -0.01317  -0.05279  -0.01229   0.17755
  46  O     d 5     -0.06018   0.06463  -0.00124  -0.09715  -0.10687  -0.13266
  47  H 1   s       -0.09042   0.09889   0.17602   0.05782   0.05507  -0.04674
  48  H 1   s       -0.67996  -7.45347  12.47938   7.08278  -2.74306   3.81777
  49  H 1   s       -0.36682   0.92551   0.97518   0.29035  -0.72552  -0.71097
  50  H 1   px      -0.02644  -0.01983   0.00931  -0.01687  -0.01687   0.00289
  51  H 1   py       0.00135  -0.00377   0.01095   0.01684   0.00465  -0.02644
  52  H 1   pz      -0.00293  -0.03050  -0.01828   0.00837   0.00827   0.00286
  53  H 1   px       1.39272   0.32235  -1.09380  -0.00374  -0.54934   1.67221
  54  H 1   py      -0.10804   3.36315  -4.78489  -2.76301   0.17324  -1.52928
  55  H 1   pz      -0.38040   0.19551   2.88426   0.78038  -0.91386   1.33795
  56  H 2   s       -0.09042   0.09889  -0.17603   0.05782   0.05508   0.04674
  57  H 2   s       -0.67982  -7.45357 -12.47935   7.08259  -2.74294  -3.81786
  58  H 2   s       -0.36684   0.92550  -0.97519   0.29034  -0.72553   0.71094
  59  H 2   px      -0.02401  -0.03031   0.00361  -0.01444  -0.01143  -0.01041
  60  H 2   py       0.00520  -0.02042   0.00956   0.02071   0.01328   0.01451
  61  H 2   pz      -0.01028   0.00129  -0.02088   0.00097  -0.00821   0.01993
  62  H 2   px       1.01929  -0.47530  -1.64896   1.05921  -0.94194  -2.42929
  63  H 2   py      -0.70123   2.09614   0.42813  -1.07453  -0.45051   0.32670
  64  H 2   pz       0.75187   2.61409   5.43213  -2.44259   0.27673   0.95759
  65  H 3   s        0.14232  -0.05689  -0.00000   0.15512   0.00424   0.00000
  66  H 3   s        9.34314  13.12375  -0.00000 -10.11216  -3.24175   0.00000
  67  H 3   s        0.90887  -1.08487   0.00001  -0.41227   0.37689   0.00001
  68  H 3   px      -0.01702   0.02950   0.00392  -0.03539  -0.00950   0.00397
  69  H 3   py       0.00373  -0.02187   0.00623   0.01422   0.02145   0.00631
  70  H 3   pz      -0.00366  -0.00173  -0.01189  -0.00422   0.00810  -0.01205
  71  H 3   px       3.78664   3.11079  -0.09564  -2.67926  -1.69230  -0.54904
  72  H 3   py       1.80289   3.16176  -0.15193  -1.83557   0.81594  -0.87209
  73  H 3   pz       2.19331   2.68231   0.29001  -1.84523  -0.13071   1.66475
  74  H 4   s        0.07358  -0.16332   0.00000  -0.43697   0.33899   0.00000
  75  H 4   s        0.55210  -3.37047   0.00006  -5.58074   2.88388   0.00005
  76  H 4   s       -0.04247  -0.97153   0.00001  -0.19252   0.50997   0.00000
  77  H 4   px      -0.01228  -0.00882   0.00622  -0.01480   0.03817  -0.00595
  78  H 4   py       0.00686   0.00279   0.00988   0.02347   0.02041  -0.00945
  79  H 4   pz      -0.00046  -0.00145  -0.01886   0.00741   0.02328   0.01804
  80  H 4   px       0.47051   0.42420  -0.26606   3.27666  -1.33511  -0.01770
  81  H 4   py      -0.85750   1.21583  -0.42259   0.77139  -0.56028  -0.02810
  82  H 4   pz      -0.29404   0.77685   0.80663   1.48477  -0.73384   0.05361
                        43        44        45        46        47        48
 eigenvalues:          0.753     0.908     0.961     0.992     1.041     1.103
   1  C     s       -0.00084   0.08774  -0.00000   0.01491   0.07721  -0.23959
   2  C     s       -0.14198   0.28626  -0.00000   0.09087   0.53005  -1.20321
   3  C     s        0.33433  -2.66563   0.00001   0.30733  -1.62391   3.73860
   4  C     s       -0.16872  -1.13408   0.00000   0.75268  -3.43804   4.61198
   5  C     px      -0.14899   0.21099   0.26595  -0.06430  -0.92124  -0.29717
   6  C     py       0.13755  -0.61749   0.42246   0.43753  -0.30352  -0.45952
   7  C     pz       0.02292  -0.25391  -0.80640   0.20801  -0.46284  -0.33873
   8  C     px      -1.06911  -4.05117  -1.15471  -0.35734   4.33300   3.07483
   9  C     py       1.31902   4.20131  -1.83421  -0.11113   0.20748   1.16648
  10  C     pz       0.33842   0.86489   3.50122  -0.17611   1.53775   1.62515
  11  C     px      -0.89779  -0.71322  -0.48353   0.31143   0.80579   1.16148
  12  C     py      -0.08636   0.77135  -0.76807  -0.09379   0.32534   0.43463
  13  C     pz      -0.34134   0.16888   1.46613   0.05356   0.43620   0.61075
  14  C     d 1      0.00320   0.10498  -0.05275   0.03270  -0.22231   0.04529
  15  C     d 2      0.01025  -0.05620   0.16359   0.08324  -0.10466  -0.06780
  16  C     d 3     -0.01936   0.11080   0.17635  -0.07863  -0.04361   0.09650
  17  C     d 4      0.02753  -0.04325  -0.06944   0.11517  -0.10617  -0.07395
  18  C     d 5      0.03042  -0.06225   0.12547   0.07947   0.04552  -0.06912
  19  C     d 1      1.65632   0.37104   0.43315  -0.68570   0.27548  -0.51217
  20  C     d 2     -1.99559   0.86116  -0.53175   0.81309   0.39095   0.66182
  21  C     d 3      1.28597   0.14114  -0.91522   0.22082  -0.43672  -0.83408
  22  C     d 4      0.39510  -0.17176  -0.14354  -1.25857   0.75330   0.49881
  23  C     d 5      1.70951  -1.26023  -0.31878  -2.35533   0.63683   0.37013
  24  O     s       -0.01577  -0.06276   0.00000   0.07002   0.04347   0.07604
  25  O     s        0.10894  -0.08523   0.00000   0.22159   0.08983   0.24956
  26  O     s        0.84545   1.43516  -0.00001  -1.35122  -0.90197  -1.55585
  27  O     s        1.74214   0.75396  -0.00005  -8.35174   1.45066  -3.69397
  28  O     px      -0.16922   0.09967   0.01063   0.13005   0.09768   0.03051
  29  O     py       0.02106   0.16762   0.01689   0.14770   0.14905   0.11217
  30  O     pz      -0.04478   0.12068  -0.03224   0.12027   0.11030   0.06882
  31  O     px      -1.01220  -1.51049   0.10870  -0.36192   0.37893   0.24059
  32  O     py      -0.25889   0.50652   0.17266   0.02613  -0.65636  -0.55548
  33  O     pz      -0.46945  -0.23281  -0.32959  -0.10567  -0.21888  -0.21166
  34  O     px      -1.35398  -1.28633   0.38386   0.11306  -0.37683   0.06093
  35  O     py       0.36792  -0.29296   0.60973  -2.07005   0.20735  -0.56941
  36  O     pz      -0.25380  -0.57772  -1.16391  -1.04715  -0.01566  -0.27821
  37  O     d 1     -0.02755  -0.01859   0.00179  -0.00763  -0.00028  -0.01973
  38  O     d 2     -0.00798  -0.00683   0.00636  -0.01872  -0.00430  -0.00441
  39  O     d 3      0.00495  -0.00328   0.00184   0.00880   0.01261   0.00068
  40  O     d 4     -0.03008  -0.01011  -0.00811  -0.01320  -0.01712  -0.01783
  41  O     d 5     -0.02478   0.00011   0.00618   0.00152  -0.02171  -0.01337
  42  O     d 1     -0.04038  -0.66239  -0.01421  -0.33081   0.16101   0.31734
  43  O     d 2     -0.12825  -0.12643  -0.32168  -0.39224  -0.08188  -0.26710
  44  O     d 3      0.02606  -0.32633  -0.19262   0.22574   0.09462   0.29953
  45  O     d 4     -0.02926  -0.09689   0.30299  -0.49650   0.04209  -0.04373
  46  O     d 5      0.09741   0.29136  -0.28687  -0.21974   0.06476   0.03648
  47  H 1   s       -0.02067   0.07738  -0.59717  -0.41579  -0.59210   1.05109
  48  H 1   s       -2.04101  -1.71523   2.87425  -0.74879   2.01891  -2.62004
  49  H 1   s        0.01575  -0.19830   1.02083   0.05466   0.18572  -0.68198
  50  H 1   px      -0.00439   0.01434   0.02158   0.00043  -0.06554   0.06174
  51  H 1   py      -0.00215   0.04664  -0.21914  -0.08796  -0.03284   0.17030
  52  H 1   pz       0.00258  -0.04384   0.06759   0.08280  -0.01120  -0.10239
  53  H 1   px      -0.63045   0.68908  -0.26136   0.61940  -0.77072  -0.30188
  54  H 1   py       1.39698  -0.38901  -0.69588   0.36267  -0.31870  -0.05323
  55  H 1   pz       1.02868  -0.93551  -0.21120  -0.69977  -0.40536  -0.88662
  56  H 2   s       -0.02067   0.07739   0.59717  -0.41580  -0.59210   1.05109
  57  H 2   s       -2.04103  -1.71526  -2.87424  -0.74872   2.01888  -2.61999
  58  H 2   s        0.01575  -0.19831  -1.02083   0.05467   0.18571  -0.68198
  59  H 2   px      -0.00193  -0.02047  -0.10516   0.06182  -0.05237  -0.03934
  60  H 2   py       0.00175  -0.00866   0.08638   0.00956  -0.01191   0.00974
  61  H 2   pz      -0.00487   0.06172   0.18584  -0.10335  -0.05113   0.20410
  62  H 2   px      -0.38975   0.23177   0.14714   0.09770  -0.76321  -0.66389
  63  H 2   py       1.77932  -1.11541   0.51443  -0.46605  -0.30675  -0.62829
  64  H 2   pz       0.29885   0.45109   0.55758   0.88209  -0.42818   0.21106
  65  H 3   s        0.15615  -0.20602   0.00000   0.22504  -1.02076   0.80436
  66  H 3   s       -0.09263   0.71770   0.00002   2.96855   3.21557   0.38907
  67  H 3   s       -0.75507  -0.03845   0.00000  -0.16045   1.01727   0.57230
  68  H 3   px      -0.01928   0.08039   0.01572  -0.09009   0.22725   0.04695
  69  H 3   py       0.00364  -0.00120   0.02497  -0.03176   0.17705  -0.04952
  70  H 3   pz      -0.00445   0.02588  -0.04766  -0.04635   0.16770  -0.01046
  71  H 3   px       1.46924   0.31721   0.35940  -0.13733   0.02814   0.28929
  72  H 3   py      -0.69079   0.11801   0.57088   1.56075   0.08442   0.24575
  73  H 3   pz       0.12267   0.16644  -1.08972   0.77235   0.05351   0.22415
  74  H 4   s       -0.40886  -0.32476  -0.00000  -0.86433  -0.26507  -0.44519
  75  H 4   s        1.56396   4.64938   0.00004   9.63790  -2.07104   0.65353
  76  H 4   s        0.76801   0.78496  -0.00000   0.19754  -0.26971  -0.53102
  77  H 4   px      -0.09160  -0.08245  -0.00519  -0.13662  -0.13922  -0.12081
  78  H 4   py      -0.02185  -0.10602  -0.00824  -0.16691   0.01670  -0.03330
  79  H 4   pz      -0.04166  -0.08274   0.01572  -0.13250  -0.03717  -0.05729
  80  H 4   px       0.01225  -1.47457  -0.18225  -2.42318   1.25135   0.37244
  81  H 4   py      -0.54162  -0.11478  -0.28949  -0.00822  -0.29865  -0.50558
  82  H 4   pz      -0.27970  -0.54645   0.55259  -0.80348   0.25624  -0.14202
                        49        50        51        52        53        54
 eigenvalues:          1.200     1.229     1.243     1.373     1.434     1.528
   1  C     s       -0.00000  -0.00000   0.08187   0.03671   0.00000  -0.06724
   2  C     s       -0.00001  -0.00000   0.40487   0.18970   0.00000  -0.32917
   3  C     s        0.00002   0.00001  -0.57425   0.56171   0.00000  -2.96845
   4  C     s        0.00002   0.00001  -3.06937   0.44428   0.00001  -1.58478
   5  C     px       0.25285  -0.14833   0.19704  -0.00749   0.14050  -0.90917
   6  C     py       0.40164  -0.23562   0.11328  -0.80506   0.22317   0.45831
   7  C     pz      -0.76667   0.44976   0.12433  -0.42422  -0.42601  -0.05975
   8  C     px      -1.52970   0.48200   0.38528   1.74950  -1.64624   5.88579
   9  C     py      -2.42985   0.76564   0.32592   6.37056  -2.61492  -1.06761
  10  C     pz       4.63826  -1.46149   0.29780   3.91431   4.99160   1.38187
  11  C     px      -0.21688   0.08407  -0.47018   0.67696  -0.38485   0.65132
  12  C     py      -0.34451   0.13354   0.40919   1.08774  -0.61132  -0.37523
  13  C     pz       0.65763  -0.25490   0.05930   0.79309   1.16695   0.01824
  14  C     d 1     -0.00957   0.02083  -0.04777   0.14012   0.14392  -0.10169
  15  C     d 2      0.01411   0.03476   0.00754   0.21523  -0.25679   0.13977
  16  C     d 3      0.02177  -0.00441   0.01727  -0.09557  -0.35668  -0.15850
  17  C     d 4      0.00109  -0.05997  -0.07261   0.19241   0.02278   0.08562
  18  C     d 5      0.00912   0.03757  -0.09437   0.01911  -0.17616   0.04516
  19  C     d 1      0.29900   0.09894   0.79092  -0.62870  -0.76174  -1.19204
  20  C     d 2      0.18889  -0.60561  -0.15447  -0.97117   1.30640  -0.94213
  21  C     d 3     -0.26678  -0.52691  -0.30203   0.93802   1.85324  -0.27541
  22  C     d 4     -0.58807   0.39306   1.23648  -1.60490  -0.07415  -0.37034
  23  C     d 5      0.26738  -0.49730   1.64279  -1.20479   0.88609   0.90928
  24  O     s        0.00000   0.00000  -0.02207  -0.06322  -0.00000   0.03324
  25  O     s        0.00000   0.00000   0.00513  -0.21214  -0.00000   0.09238
  26  O     s       -0.00000  -0.00000   0.95891   1.25473   0.00001  -1.10663
  27  O     s       -0.00001  -0.00001   6.85517   0.46523  -0.00001   1.37763
  28  O     px      -0.04348   0.09177   0.04211  -0.02552   0.17503  -0.76900
  29  O     py      -0.06907   0.14577  -0.29292  -0.51919   0.27803   0.36169
  30  O     pz       0.13184  -0.27826  -0.13956  -0.28040  -0.53072  -0.06414
  31  O     px       0.07843  -0.10597   0.14778  -0.04710  -0.21473   2.08638
  32  O     py       0.12459  -0.16833   0.24522   0.86433  -0.34107  -0.91698
  33  O     pz      -0.23782   0.32132   0.17721   0.43726   0.65107   0.20771
  34  O     px      -0.10308  -0.00423  -0.27264   0.54255   0.08771   0.87886
  35  O     py      -0.16375  -0.00673   0.74573  -0.22887   0.13931   0.51222
  36  O     pz       0.31256   0.01284   0.30075   0.05904  -0.26593   0.55819
  37  O     d 1      0.00439   0.00557  -0.00165   0.00099   0.00584   0.05113
  38  O     d 2     -0.00310   0.00013   0.02022   0.01941   0.00999   0.01053
  39  O     d 3     -0.00777  -0.00719  -0.01361  -0.01589  -0.00107   0.02205
  40  O     d 4     -0.00347  -0.00797   0.01099   0.01708  -0.01702   0.01179
  41  O     d 5     -0.00122   0.00201  -0.00184   0.00689   0.01075  -0.01669
  42  O     d 1     -0.27893  -0.52824   0.40982   0.06446   0.03351  -0.53584
  43  O     d 2      0.48829  -0.13152  -0.70423  -0.07956  -0.33098  -0.12857
  44  O     d 3      0.68513   0.60403   0.24114   0.16050  -0.26110  -0.41474
  45  O     d 4     -0.03587   0.86110   0.28664  -0.14521   0.24382   0.15127
  46  O     d 5      0.33317  -0.29511   0.91020  -0.17511  -0.27878   0.60896
  47  H 1   s        0.38894  -0.07803  -0.12672  -0.92412   1.38267   0.24063
  48  H 1   s        4.90349  -2.75483   1.08039  -5.41971   5.97930   0.63153
  49  H 1   s        0.56946  -0.22197  -0.01869  -0.50239   0.88281   0.43103
  50  H 1   px      -0.03632   0.04528  -0.01586   0.03305  -0.03722   0.08396
  51  H 1   py      -0.09450   0.06903  -0.00312   0.07860   0.04525   0.01020
  52  H 1   pz       0.07631  -0.03053   0.04844   0.08210   0.07370   0.06910
  53  H 1   px      -0.27536   0.08920  -0.50345   0.47892  -0.10605  -0.50352
  54  H 1   py      -1.68467   0.54120   0.07821   1.37723  -1.34111   0.14713
  55  H 1   pz       0.29864  -0.53403  -0.01907  -0.85852   0.85414   0.45578
  56  H 2   s       -0.38893   0.07803  -0.12672  -0.92410  -1.38268   0.24063
  57  H 2   s       -4.90351   2.75482   1.08040  -5.41961  -5.97937   0.63150
  58  H 2   s       -0.56947   0.22197  -0.01870  -0.50238  -0.88282   0.43102
  59  H 2   px      -0.02939  -0.00636   0.01051   0.04737   0.00752   0.10116
  60  H 2   py      -0.00987  -0.00720   0.03877   0.10134  -0.09242   0.03752
  61  H 2   pz       0.12294  -0.08750  -0.03153   0.03869   0.01634   0.01695
  62  H 2   px      -0.33122   0.31469  -0.45290  -0.34984  -0.65298  -0.24375
  63  H 2   py       0.72115   0.10035   0.15850   0.06076   0.13544   0.55977
  64  H 2   pz       1.54058  -0.69061  -0.17233   1.65439   1.44732  -0.33189
  65  H 3   s        0.00001   0.00000  -0.48201   1.16566   0.00001   1.10013
  66  H 3   s       -0.00001   0.00000  -0.93807   9.71558   0.00005   5.38063
  67  H 3   s        0.00001   0.00000   0.50137   1.16157   0.00001   0.28451
  68  H 3   px      -0.00870  -0.01184   0.04133  -0.00339  -0.04643   0.04181
  69  H 3   py      -0.01382  -0.01880  -0.02038   0.07183  -0.07375  -0.03220
  70  H 3   pz       0.02638   0.03589   0.00296   0.03651   0.14077  -0.00308
  71  H 3   px       0.24943   0.04627   0.33007   2.25377  -0.08761   1.27344
  72  H 3   py       0.39620   0.07350  -0.74901   1.31702  -0.13917   0.63686
  73  H 3   pz      -0.75630  -0.14030  -0.28353   1.43326   0.26568   0.75362
  74  H 4   s       -0.00000  -0.00000   0.25366   0.42539   0.00000   0.32117
  75  H 4   s       -0.00000   0.00000  -5.95691  -0.58745   0.00002  -4.89932
  76  H 4   s       -0.00000  -0.00000   0.12092  -0.48179  -0.00000  -0.63402
  77  H 4   px      -0.02045  -0.01392   0.13844   0.12316   0.01609   0.10466
  78  H 4   py      -0.03248  -0.02212   0.01916   0.15488   0.02556   0.09826
  79  H 4   pz       0.06200   0.04222   0.05569   0.12175  -0.04879   0.08599
  80  H 4   px       0.08041   0.23810   1.45017  -0.18189   0.06007   1.00043
  81  H 4   py       0.12773   0.37821   0.65109   0.25332   0.09543   1.00305
  82  H 4   pz      -0.24381  -0.72194   0.81936   0.07272  -0.18217   0.85542
                        55        56        57        58        59
 eigenvalues:          1.609     1.727     1.754     1.780     1.788
   1  C     s       -0.07282  -0.00001   0.37096   0.13212   0.00001
   2  C     s       -0.23646  -0.00002   1.37507   0.46185   0.00002
   3  C     s        1.78222   0.00013  -7.96284  -2.14259  -0.00012
   4  C     s        1.57455   0.00006  -4.21598  -0.72643  -0.00005
   5  C     px       0.31031   0.02747  -0.74079  -0.23745   0.03691
   6  C     py      -0.34141   0.04361   0.42133   0.13140   0.05866
   7  C     pz      -0.07651  -0.08325  -0.02359  -0.00947  -0.11195
   8  C     px       0.15120  -0.28429  -0.44370   0.61684   0.21982
   9  C     py      -0.93507  -0.45159  -1.09538   1.65549   0.34917
  10  C     pz      -0.44002   0.86204  -0.72015   1.07074  -0.66641
  11  C     px      -0.02449  -0.13763  -0.10525   0.28715  -0.00356
  12  C     py      -0.21032  -0.21863   0.26224   0.12279  -0.00567
  13  C     pz      -0.11826   0.41732   0.10268   0.15903   0.01083
  14  C     d 1     -0.29704  -0.37029   0.23590   0.28688  -0.11119
  15  C     d 2     -0.37842  -0.14806  -0.08276  -0.50518   0.13709
  16  C     d 3      0.09555   0.38672   0.27854   0.18929   0.23535
  17  C     d 4     -0.27986   0.65276  -0.15609   0.17516   0.03633
  18  C     d 5      0.07931  -0.25586  -0.27079   0.61015   0.08238
  19  C     d 1      0.01391   1.12940  -0.16192  -0.62588   0.79314
  20  C     d 2      1.86592   0.07732   0.93883   1.29716   0.42645
  21  C     d 3     -1.05600  -1.42526  -0.50604  -0.20572  -0.75667
  22  C     d 4      0.87762  -1.66178   0.24668  -0.75547  -1.49434
  23  C     d 5     -0.45701   0.45226  -0.44437  -2.08339   0.64377
  24  O     s       -0.12537  -0.00000   0.09862   0.05396   0.00000
  25  O     s       -0.66357  -0.00001   0.67140   0.31146   0.00001
  26  O     s        0.96459  -0.00000  -0.01234  -0.36821  -0.00002
  27  O     s       -0.54450  -0.00005   3.61253  -0.54028   0.00001
  28  O     px      -0.40722   0.05613  -0.03342  -0.06738   0.33450
  29  O     py       0.08613   0.08917  -0.67255  -0.28353   0.53133
  30  O     pz      -0.08918  -0.17018  -0.36335  -0.17071  -1.01427
  31  O     px       1.62089  -0.14308  -0.57455  -0.15519  -0.70231
  32  O     py      -0.19931  -0.22733   2.14183   0.94075  -1.11553
  33  O     pz       0.43016   0.43385   0.93256   0.44156   2.12948
  34  O     px       0.80033   0.03555  -1.20180   0.45694  -0.00775
  35  O     py       0.18805   0.05644   0.49012  -0.15455  -0.01232
  36  O     pz       0.36246  -0.10774  -0.13960   0.06973   0.02353
  37  O     d 1      0.03222   0.00884   0.02388  -0.01911   0.00056
  38  O     d 2      0.02470   0.01070   0.00585  -0.00176   0.01201
  39  O     d 3     -0.01329  -0.00453   0.01531   0.00371   0.00714
  40  O     d 4      0.04055  -0.02189  -0.00216  -0.02265  -0.01136
  41  O     d 5      0.02246   0.01239  -0.02030  -0.02349   0.01072
  42  O     d 1     -0.23390  -0.14462  -0.62411  -0.00153   0.14090
  43  O     d 2     -0.47169  -0.07804   0.12151   0.01416   0.38075
  44  O     d 3      0.45188   0.13779  -0.28931  -0.14724   0.06581
  45  O     d 4     -0.70725   0.27273  -0.20513   0.20843  -0.53372
  46  O     d 5     -0.50990  -0.11764  -0.12774   0.30315   0.38180
  47  H 1   s        0.23973   0.00613   0.54339  -0.01894  -0.12377
  48  H 1   s        0.86392  -0.14545   2.24443  -1.17477   0.31704
  49  H 1   s       -0.14550   0.45782   0.12337   0.09461   0.04709
  50  H 1   px      -0.04357  -0.41470  -0.01545   0.17516   0.21520
  51  H 1   py       0.00345   0.06463  -0.11426  -0.15357  -0.10981
  52  H 1   pz      -0.10314  -0.02182  -0.04603  -0.19866  -0.16240
  53  H 1   px       0.27593  -0.70276   0.12385   0.10581  -1.14360
  54  H 1   py      -0.58848  -0.05008  -0.67284  -0.06922  -0.03653
  55  H 1   pz      -0.73889  -0.53372   0.03203  -0.97044   0.13940
  56  H 2   s        0.23973  -0.00615   0.54338  -0.01895   0.12378
  57  H 2   s        0.86395   0.14540   2.24445  -1.17474  -0.31707
  58  H 2   s       -0.14549  -0.45782   0.12335   0.09461  -0.04708
  59  H 2   px      -0.08677   0.37603  -0.00641   0.09125  -0.13134
  60  H 2   py      -0.06516  -0.12605  -0.09993  -0.28689   0.24299
  61  H 2   pz       0.02783   0.13907  -0.07339   0.05580  -0.09186
  62  H 2   px       0.02720   0.83424   0.28775  -0.35635   0.88813
  63  H 2   py      -0.98359   0.25894  -0.41251  -0.80324  -0.36930
  64  H 2   pz       0.01529   0.13507  -0.46488   0.43071   0.63519
  65  H 3   s       -0.66218   0.00000  -0.14088   0.53330   0.00002
  66  H 3   s       -1.41474  -0.00002   0.58793   3.19999   0.00010
  67  H 3   s       -0.06312  -0.00001   0.72415   0.29848   0.00001
  68  H 3   px      -0.08944   0.06487   0.29166  -0.20758   0.05167
  69  H 3   py       0.09900   0.10305  -0.27826   0.29690   0.08209
  70  H 3   pz       0.02237  -0.19670  -0.04959   0.08708  -0.15668
  71  H 3   px      -0.07998   0.37615  -0.27972   0.04556   0.10608
  72  H 3   py       0.18188   0.59747   0.81394   1.10530   0.16854
  73  H 3   pz       0.06890  -1.14053   0.33413   0.59408  -0.32163
  74  H 4   s        1.24319   0.00001  -0.41517  -0.66934  -0.00003
  75  H 4   s       -3.64325  -0.00001  -0.06100   2.36395   0.00007
  76  H 4   s       -0.16968  -0.00001   0.36705  -0.24908  -0.00001
  77  H 4   px       0.22246   0.03322  -0.03357   0.13382  -0.03369
  78  H 4   py       0.23767   0.05276   0.25463  -0.14645  -0.05353
  79  H 4   pz       0.19788  -0.10073   0.12232  -0.03259   0.10216
  80  H 4   px       0.94341  -0.05969   0.30167  -1.25873   0.04642
  81  H 4   py       0.24923  -0.09481  -0.31100   0.24313   0.07380
  82  H 4   pz       0.44170   0.18099  -0.06343  -0.28776  -0.14086

          Ground-State Mulliken Net Atomic Charges

     Atom                 Charge (a.u.)
  ----------------------------------------
      1 C                     0.772187
      2 O                    -0.621946
      3 H                    -0.088574
      4 H                    -0.088571
      5 H                    -0.135316
      6 H                     0.162220
  ----------------------------------------
  Sum of atomic charges =     0.000000

 -----------------------------------------------------------------
                    Cartesian Multipole Moments
 -----------------------------------------------------------------
    Charge (ESU x 10^10)
                -0.0000
    Dipole Moment (Debye)
         X      -0.1398      Y       1.5923      Z       0.7881
       Tot       1.7822
    Quadrupole Moments (Debye-Ang)
        XX     -10.5439     XY      -4.5115     YY     -10.5985
        XZ      -1.3730     YZ       1.1206     ZZ     -13.1995
    Octopole Moments (Debye-Ang^2)
       XXX     126.4627    XXY      -2.1891    XYY      42.3180
       YYY     -46.0242    XXZ       0.9482    XYZ      -2.3663
       YYZ       0.7336    XZZ      48.9263    YZZ     -16.1014
       ZZZ       0.1154
    Hexadecapole Moments (Debye-Ang^3)
      XXXX   -1023.2694   XXXY     143.7180   XXYY    -199.0071
      XYYY     185.2059   YYYY    -151.4569   XXXZ       9.0461
      XXYZ       4.6076   XYYZ      -0.7214   YYYZ      -1.5465
      XXZZ    -192.7867   XYZZ      63.1279   YYZZ     -28.6566
      XZZZ      -0.9619   YZZZ       0.4027   ZZZZ     -20.5975
 -----------------------------------------------------------------
 Mayer SCF Bond Order, atomic valence on the diagonal:

            1           2           3           4           5           6
    1   3.5924592   0.6403348   0.9770435   0.9770431   1.0219935  -0.0239558
    2   0.6403348   1.6848104   0.0244676   0.0244672  -0.0257151   1.0212559
    3   0.9770435   0.0244676   0.8930159  -0.0512678  -0.0539127  -0.0033146
    4   0.9770431   0.0244672  -0.0512678   0.8930140  -0.0539137  -0.0033147
    5   1.0219935  -0.0257151  -0.0539127  -0.0539137   0.8972612   0.0088093
    6  -0.0239558   1.0212559  -0.0033146  -0.0033147   0.0088093   0.9994800


Archival summary:
1\1\node205.cluster\SP\HF\BasisUnspecified\114\ricardi\ThuAug2621:17:572021ThuAug2621:17:572021\0\\#,HF,BasisUnspecified,\\0,1\O\H,1,0.992331\C,1,1.39826,2,105.966\H,3,1.10942,1,108.889,2,180,0\H,3,1.1116,1,110.316,2,61.4078,0\H,3,1.1116,1,110.316,2,-61.4076,0\\HF=-115.058123\\@

 Total job time:  5.74s(wall), 1.47s(cpu) 
 Thu Aug 26 21:17:57 2021

        *************************************************************
        *                                                           *
        *  Thank you very much for using Q-Chem.  Have a nice day.  *
        *                                                           *
        *************************************************************


